 Entering Gaussian System, Link 0=/apps/gaussian/g09e01/g09/g09
 AtFile(1): /home/507/hio507/Basis/6-31pGd.gbs
 Initial command:
 /apps/gaussian/g09e01/g09/l1.exe "/jobfs/local/1921654.r-man2/Gau-4854.inp" -scrdir="/jobfs/local/1921654.r-man2/"
 Entering Link 1 = /apps/gaussian/g09e01/g09/l1.exe PID=      4855.
  
 Copyright (c) 1988,1990,1992,1993,1995,1998,2003,2009,2015,
            Gaussian, Inc.  All Rights Reserved.
  
 This is part of the Gaussian(R) 09 program.  It is based on
 the Gaussian(R) 03 system (copyright 2003, Gaussian, Inc.),
 the Gaussian(R) 98 system (copyright 1998, Gaussian, Inc.),
 the Gaussian(R) 94 system (copyright 1995, Gaussian, Inc.),
 the Gaussian 92(TM) system (copyright 1992, Gaussian, Inc.),
 the Gaussian 90(TM) system (copyright 1990, Gaussian, Inc.),
 the Gaussian 88(TM) system (copyright 1988, Gaussian, Inc.),
 the Gaussian 86(TM) system (copyright 1986, Carnegie Mellon
 University), and the Gaussian 82(TM) system (copyright 1983,
 Carnegie Mellon University). Gaussian is a federally registered
 trademark of Gaussian, Inc.
  
 This software contains proprietary and confidential information,
 including trade secrets, belonging to Gaussian, Inc.
  
 This software is provided under written license and may be
 used, copied, transmitted, or stored only in accord with that
 written license.
  
 The following legend is applicable only to US Government
 contracts under FAR:
  
                    RESTRICTED RIGHTS LEGEND
  
 Use, reproduction and disclosure by the US Government is
 subject to restrictions as set forth in subparagraphs (a)
 and (c) of the Commercial Computer Software - Restricted
 Rights clause in FAR 52.227-19.
  
 Gaussian, Inc.
 340 Quinnipiac St., Bldg. 40, Wallingford CT 06492
  
  
 ---------------------------------------------------------------
 Warning -- This program may not be used in any manner that
 competes with the business of Gaussian, Inc. or will provide
 assistance to any competitor of Gaussian, Inc.  The licensee
 of this program is prohibited from giving any competitor of
 Gaussian, Inc. access to this program.  By using this program,
 the user acknowledges that Gaussian, Inc. is engaged in the
 business of creating and licensing software in the field of
 computational chemistry and represents and warrants to the
 licensee that it is not a competitor of Gaussian, Inc. and that
 it will not use this program in any manner prohibited above.
 ---------------------------------------------------------------
  

 Cite this work as:
 Gaussian 09, Revision E.01,
 M. J. Frisch, G. W. Trucks, H. B. Schlegel, G. E. Scuseria, 
 M. A. Robb, J. R. Cheeseman, G. Scalmani, V. Barone, B. Mennucci, 
 G. A. Petersson, H. Nakatsuji, M. Caricato, X. Li, H. P. Hratchian, 
 A. F. Izmaylov, J. Bloino, G. Zheng, J. L. Sonnenberg, M. Hada, 
 M. Ehara, K. Toyota, R. Fukuda, J. Hasegawa, M. Ishida, T. Nakajima, 
 Y. Honda, O. Kitao, H. Nakai, T. Vreven, J. A. Montgomery, Jr., 
 J. E. Peralta, F. Ogliaro, M. Bearpark, J. J. Heyd, E. Brothers, 
 K. N. Kudin, V. N. Staroverov, T. Keith, R. Kobayashi, J. Normand, 
 K. Raghavachari, A. Rendell, J. C. Burant, S. S. Iyengar, J. Tomasi, 
 M. Cossi, N. Rega, J. M. Millam, M. Klene, J. E. Knox, J. B. Cross, 
 V. Bakken, C. Adamo, J. Jaramillo, R. Gomperts, R. E. Stratmann, 
 O. Yazyev, A. J. Austin, R. Cammi, C. Pomelli, J. W. Ochterski, 
 R. L. Martin, K. Morokuma, V. G. Zakrzewski, G. A. Voth, 
 P. Salvador, J. J. Dannenberg, S. Dapprich, A. D. Daniels, 
 O. Farkas, J. B. Foresman, J. V. Ortiz, J. Cioslowski, 
 and D. J. Fox, Gaussian, Inc., Wallingford CT, 2013.
 
 ******************************************
 Gaussian 09:  ES64L-G09RevE.01 30-Nov-2015
                 1-Nov-2018 
 ******************************************
 %chk=3Chloro4TFM.M062X_6-31pGd_opt_water.chk
 %mem=196608000
 %nproc=4
 Will use up to    4 processors via shared memory.
 ----------------------------------------------------------------------
 # M062X/Gen 6D SCF=Tight INT(grid=ultrafine) OPT IOP(2/17=4) SCRF=(SMD
 ,Solvent=h2o) maxdisk=2147483648
 ----------------------------------------------------------------------
 1/14=-1,18=20,19=15,26=4,38=1/1,3;
 2/9=110,12=2,17=4,18=5,40=1/2;
 3/5=7,8=2,11=2,16=1,25=1,30=1,70=32201,71=1,72=1,74=-55,75=-5/1,2,3;
 4//1;
 5/5=2,32=2,38=5,53=1/2;
 6/7=2,8=2,9=2,10=2,28=1/1;
 7//1,2,3,16;
 1/14=-1,18=20,19=15,26=4/3(2);
 2/9=110,17=4/2;
 99//99;
 2/9=110,17=4/2;
 3/5=7,6=1,8=2,11=2,16=1,25=1,30=1,70=32205,71=1,72=1,74=-55,75=-5,82=7/1,2,3;
 4/5=5,16=3,69=1/1;
 5/5=2,32=2,38=5,53=1/2;
 7//1,2,3,16;
 1/14=-1,18=20,19=15,26=4/3(-5);
 2/9=110,17=4/2;
 6/7=2,8=2,9=2,10=2,19=2,28=1/1;
 99/9=1/99;
 -----------------------------------
 3Chloro4TFM.M062X_6-31pGd_opt_water
 -----------------------------------
 Symbolic Z-matrix:
 Charge =  0 Multiplicity = 1
 C                    -2.0044    1.86671  -0.13769 
 C                    -0.65659   1.16315  -0.00812 
 C                     0.50216   2.16352  -0.09068 
 N                     1.78266   1.48865   0.03331 
 C                     2.96264   2.16987  -0.01323 
 O                     2.94594   3.38106  -0.16321 
 N                     4.14116   1.48342   0.10925 
 C                     5.48171   2.00896   0.08438 
 C                     5.80506   3.38441   0.03649 
 C                     6.5418    1.08878   0.10815 
 C                     7.86945   1.51187   0.08586 
 C                     8.19611   2.87545   0.03828 
 C                     7.13914   3.82004   0.01343 
 H                    -2.82237   1.1184   -0.07521 
 H                    -2.07467   2.38964  -1.1153 
 H                    -2.13468   2.60539   0.68173 
 H                    -0.55982   0.41603  -0.82585 
 H                    -0.61932   0.63213   0.96798 
 H                     0.40066   2.9096    0.72829 
 H                     0.45966   2.6915   -1.06898 
 H                     1.79889   0.46428   0.1595 
 H                     4.06062   0.46219   0.2353 
 H                     5.05655   4.15418   0.01473 
 H                     6.34019   0.02523   0.1447 
 H                     8.6529    0.76343   0.10582 
 Cl                    7.39301   5.56388  -0.04695 
 C                     9.67232   3.22687   0.01687 
 F                     9.92152   4.58415   0.02198 
 F                     10.24951   2.69138  -1.12064 
 F                     10.28578   2.67619   1.12783 
 

 GradGradGradGradGradGradGradGradGradGradGradGradGradGradGradGradGradGrad
 Berny optimization.
 Initialization pass.
                           ----------------------------
                           !    Initial Parameters    !
                           ! (Angstroms and Degrees)  !
 --------------------------                            --------------------------
 ! Name  Definition              Value          Derivative Info.                !
 --------------------------------------------------------------------------------
 ! R1    R(1,2)                  1.5259         estimate D2E/DX2                !
 ! R2    R(1,14)                 1.1104         estimate D2E/DX2                !
 ! R3    R(1,15)                 1.1109         estimate D2E/DX2                !
 ! R4    R(1,16)                 1.1109         estimate D2E/DX2                !
 ! R5    R(2,3)                  1.5331         estimate D2E/DX2                !
 ! R6    R(2,17)                 1.1119         estimate D2E/DX2                !
 ! R7    R(2,18)                 1.1118         estimate D2E/DX2                !
 ! R8    R(3,4)                  1.4528         estimate D2E/DX2                !
 ! R9    R(3,19)                 1.1125         estimate D2E/DX2                !
 ! R10   R(3,20)                 1.1125         estimate D2E/DX2                !
 ! R11   R(4,5)                  1.3633         estimate D2E/DX2                !
 ! R12   R(4,21)                 1.0322         estimate D2E/DX2                !
 ! R13   R(5,6)                  1.2206         estimate D2E/DX2                !
 ! R14   R(5,7)                  1.3694         estimate D2E/DX2                !
 ! R15   R(7,8)                  1.4401         estimate D2E/DX2                !
 ! R16   R(7,22)                 1.0321         estimate D2E/DX2                !
 ! R17   R(8,9)                  1.4138         estimate D2E/DX2                !
 ! R18   R(8,10)                 1.404          estimate D2E/DX2                !
 ! R19   R(9,13)                 1.4036         estimate D2E/DX2                !
 ! R20   R(9,23)                 1.0739         estimate D2E/DX2                !
 ! R21   R(10,11)                1.3936         estimate D2E/DX2                !
 ! R22   R(10,24)                1.0831         estimate D2E/DX2                !
 ! R23   R(11,12)                1.403          estimate D2E/DX2                !
 ! R24   R(11,25)                1.0837         estimate D2E/DX2                !
 ! R25   R(12,13)                1.4178         estimate D2E/DX2                !
 ! R26   R(12,27)                1.5176         estimate D2E/DX2                !
 ! R27   R(13,26)                1.7633         estimate D2E/DX2                !
 ! R28   R(27,28)                1.38           estimate D2E/DX2                !
 ! R29   R(27,29)                1.3834         estimate D2E/DX2                !
 ! R30   R(27,30)                1.3834         estimate D2E/DX2                !
 ! A1    A(2,1,14)             109.5829         estimate D2E/DX2                !
 ! A2    A(2,1,15)             110.3429         estimate D2E/DX2                !
 ! A3    A(2,1,16)             110.3373         estimate D2E/DX2                !
 ! A4    A(14,1,15)            108.6721         estimate D2E/DX2                !
 ! A5    A(14,1,16)            108.6765         estimate D2E/DX2                !
 ! A6    A(15,1,16)            109.1896         estimate D2E/DX2                !
 ! A7    A(1,2,3)              111.2345         estimate D2E/DX2                !
 ! A8    A(1,2,17)             108.9201         estimate D2E/DX2                !
 ! A9    A(1,2,18)             108.9277         estimate D2E/DX2                !
 ! A10   A(3,2,17)             109.4559         estimate D2E/DX2                !
 ! A11   A(3,2,18)             109.4875         estimate D2E/DX2                !
 ! A12   A(17,2,18)            108.7737         estimate D2E/DX2                !
 ! A13   A(2,3,4)              111.0078         estimate D2E/DX2                !
 ! A14   A(2,3,19)             109.2086         estimate D2E/DX2                !
 ! A15   A(2,3,20)             109.1577         estimate D2E/DX2                !
 ! A16   A(4,3,19)             109.2159         estimate D2E/DX2                !
 ! A17   A(4,3,20)             109.2199         estimate D2E/DX2                !
 ! A18   A(19,3,20)            109.0015         estimate D2E/DX2                !
 ! A19   A(3,4,5)              121.8614         estimate D2E/DX2                !
 ! A20   A(3,4,21)             119.0318         estimate D2E/DX2                !
 ! A21   A(5,4,21)             119.1069         estimate D2E/DX2                !
 ! A22   A(4,5,6)              119.2226         estimate D2E/DX2                !
 ! A23   A(4,5,7)              119.4307         estimate D2E/DX2                !
 ! A24   A(6,5,7)              121.3467         estimate D2E/DX2                !
 ! A25   A(5,7,8)              128.0729         estimate D2E/DX2                !
 ! A26   A(5,7,22)             116.0891         estimate D2E/DX2                !
 ! A27   A(8,7,22)             115.838          estimate D2E/DX2                !
 ! A28   A(7,8,9)              124.6482         estimate D2E/DX2                !
 ! A29   A(7,8,10)             117.6068         estimate D2E/DX2                !
 ! A30   A(9,8,10)             117.7449         estimate D2E/DX2                !
 ! A31   A(8,9,13)             121.3258         estimate D2E/DX2                !
 ! A32   A(8,9,23)             122.5911         estimate D2E/DX2                !
 ! A33   A(13,9,23)            116.0831         estimate D2E/DX2                !
 ! A34   A(8,10,11)            121.3379         estimate D2E/DX2                !
 ! A35   A(8,10,24)            120.2389         estimate D2E/DX2                !
 ! A36   A(11,10,24)           118.4232         estimate D2E/DX2                !
 ! A37   A(10,11,12)           121.1597         estimate D2E/DX2                !
 ! A38   A(10,11,25)           118.6049         estimate D2E/DX2                !
 ! A39   A(12,11,25)           120.2354         estimate D2E/DX2                !
 ! A40   A(11,12,13)           118.3307         estimate D2E/DX2                !
 ! A41   A(11,12,27)           116.8734         estimate D2E/DX2                !
 ! A42   A(13,12,27)           124.7959         estimate D2E/DX2                !
 ! A43   A(9,13,12)            120.101          estimate D2E/DX2                !
 ! A44   A(9,13,26)            116.3824         estimate D2E/DX2                !
 ! A45   A(12,13,26)           123.5166         estimate D2E/DX2                !
 ! A46   A(12,27,28)           113.7882         estimate D2E/DX2                !
 ! A47   A(12,27,29)           109.1357         estimate D2E/DX2                !
 ! A48   A(12,27,30)           109.1377         estimate D2E/DX2                !
 ! A49   A(28,27,29)           107.9637         estimate D2E/DX2                !
 ! A50   A(28,27,30)           107.9666         estimate D2E/DX2                !
 ! A51   A(29,27,30)           108.7369         estimate D2E/DX2                !
 ! D1    D(14,1,2,3)           179.9516         estimate D2E/DX2                !
 ! D2    D(14,1,2,17)           59.225          estimate D2E/DX2                !
 ! D3    D(14,1,2,18)          -59.2777         estimate D2E/DX2                !
 ! D4    D(15,1,2,3)            60.3274         estimate D2E/DX2                !
 ! D5    D(15,1,2,17)          -60.3991         estimate D2E/DX2                !
 ! D6    D(15,1,2,18)         -178.9018         estimate D2E/DX2                !
 ! D7    D(16,1,2,3)           -60.4223         estimate D2E/DX2                !
 ! D8    D(16,1,2,17)          178.8512         estimate D2E/DX2                !
 ! D9    D(16,1,2,18)           60.3485         estimate D2E/DX2                !
 ! D10   D(1,2,3,4)            179.9953         estimate D2E/DX2                !
 ! D11   D(1,2,3,19)            59.5217         estimate D2E/DX2                !
 ! D12   D(1,2,3,20)           -59.5591         estimate D2E/DX2                !
 ! D13   D(17,2,3,4)           -59.5939         estimate D2E/DX2                !
 ! D14   D(17,2,3,19)          179.9325         estimate D2E/DX2                !
 ! D15   D(17,2,3,20)           60.8517         estimate D2E/DX2                !
 ! D16   D(18,2,3,4)            59.5542         estimate D2E/DX2                !
 ! D17   D(18,2,3,19)          -60.9194         estimate D2E/DX2                !
 ! D18   D(18,2,3,20)          179.9998         estimate D2E/DX2                !
 ! D19   D(2,3,4,5)            179.8397         estimate D2E/DX2                !
 ! D20   D(2,3,4,21)            -0.1145         estimate D2E/DX2                !
 ! D21   D(19,3,4,5)           -59.691          estimate D2E/DX2                !
 ! D22   D(19,3,4,21)          120.3548         estimate D2E/DX2                !
 ! D23   D(20,3,4,5)            59.431          estimate D2E/DX2                !
 ! D24   D(20,3,4,21)         -120.5232         estimate D2E/DX2                !
 ! D25   D(3,4,5,6)              0.0003         estimate D2E/DX2                !
 ! D26   D(3,4,5,7)            179.9855         estimate D2E/DX2                !
 ! D27   D(21,4,5,6)           179.9544         estimate D2E/DX2                !
 ! D28   D(21,4,5,7)            -0.0603         estimate D2E/DX2                !
 ! D29   D(4,5,7,8)            179.8646         estimate D2E/DX2                !
 ! D30   D(4,5,7,22)            -0.1459         estimate D2E/DX2                !
 ! D31   D(6,5,7,8)             -0.1505         estimate D2E/DX2                !
 ! D32   D(6,5,7,22)           179.839          estimate D2E/DX2                !
 ! D33   D(5,7,8,9)              5.6299         estimate D2E/DX2                !
 ! D34   D(5,7,8,10)          -174.3067         estimate D2E/DX2                !
 ! D35   D(22,7,8,9)          -174.3595         estimate D2E/DX2                !
 ! D36   D(22,7,8,10)            5.7038         estimate D2E/DX2                !
 ! D37   D(7,8,9,13)          -179.9407         estimate D2E/DX2                !
 ! D38   D(7,8,9,23)             0.0014         estimate D2E/DX2                !
 ! D39   D(10,8,9,13)           -0.0041         estimate D2E/DX2                !
 ! D40   D(10,8,9,23)          179.938          estimate D2E/DX2                !
 ! D41   D(7,8,10,11)          179.9602         estimate D2E/DX2                !
 ! D42   D(7,8,10,24)           -0.0487         estimate D2E/DX2                !
 ! D43   D(9,8,10,11)            0.0191         estimate D2E/DX2                !
 ! D44   D(9,8,10,24)         -179.9898         estimate D2E/DX2                !
 ! D45   D(8,9,13,12)           -0.0073         estimate D2E/DX2                !
 ! D46   D(8,9,13,26)          179.9759         estimate D2E/DX2                !
 ! D47   D(23,9,13,12)        -179.9531         estimate D2E/DX2                !
 ! D48   D(23,9,13,26)           0.0302         estimate D2E/DX2                !
 ! D49   D(8,10,11,12)          -0.0228         estimate D2E/DX2                !
 ! D50   D(8,10,11,25)         179.992          estimate D2E/DX2                !
 ! D51   D(24,10,11,12)        179.9859         estimate D2E/DX2                !
 ! D52   D(24,10,11,25)          0.0007         estimate D2E/DX2                !
 ! D53   D(10,11,12,13)          0.0107         estimate D2E/DX2                !
 ! D54   D(10,11,12,27)       -179.9745         estimate D2E/DX2                !
 ! D55   D(25,11,12,13)        179.9956         estimate D2E/DX2                !
 ! D56   D(25,11,12,27)          0.0105         estimate D2E/DX2                !
 ! D57   D(11,12,13,9)           0.0041         estimate D2E/DX2                !
 ! D58   D(11,12,13,26)       -179.9779         estimate D2E/DX2                !
 ! D59   D(27,12,13,9)         179.988          estimate D2E/DX2                !
 ! D60   D(27,12,13,26)          0.006          estimate D2E/DX2                !
 ! D61   D(11,12,27,28)       -177.6425         estimate D2E/DX2                !
 ! D62   D(11,12,27,29)         61.7127         estimate D2E/DX2                !
 ! D63   D(11,12,27,30)        -56.9928         estimate D2E/DX2                !
 ! D64   D(13,12,27,28)          2.3733         estimate D2E/DX2                !
 ! D65   D(13,12,27,29)       -118.2714         estimate D2E/DX2                !
 ! D66   D(13,12,27,30)        123.0231         estimate D2E/DX2                !
 --------------------------------------------------------------------------------
 Trust Radius=3.00D-01 FncErr=1.00D-07 GrdErr=1.00D-06
 Number of steps in this run=    157 maximum allowed number of steps=    180.
 GradGradGradGradGradGradGradGradGradGradGradGradGradGradGradGradGradGrad

                          Input orientation:                          
 ---------------------------------------------------------------------
 Center     Atomic      Atomic             Coordinates (Angstroms)
 Number     Number       Type             X           Y           Z
 ---------------------------------------------------------------------
      1          6           0       -2.004400    1.866710   -0.137690
      2          6           0       -0.656590    1.163150   -0.008120
      3          6           0        0.502160    2.163520   -0.090680
      4          7           0        1.782660    1.488650    0.033310
      5          6           0        2.962640    2.169870   -0.013230
      6          8           0        2.945940    3.381060   -0.163210
      7          7           0        4.141160    1.483420    0.109250
      8          6           0        5.481710    2.008960    0.084380
      9          6           0        5.805060    3.384410    0.036490
     10          6           0        6.541800    1.088780    0.108150
     11          6           0        7.869450    1.511870    0.085860
     12          6           0        8.196110    2.875450    0.038280
     13          6           0        7.139140    3.820040    0.013430
     14          1           0       -2.822370    1.118400   -0.075210
     15          1           0       -2.074670    2.389640   -1.115300
     16          1           0       -2.134680    2.605390    0.681730
     17          1           0       -0.559820    0.416030   -0.825850
     18          1           0       -0.619320    0.632130    0.967980
     19          1           0        0.400660    2.909600    0.728290
     20          1           0        0.459660    2.691500   -1.068980
     21          1           0        1.798890    0.464280    0.159500
     22          1           0        4.060620    0.462190    0.235300
     23          1           0        5.056550    4.154180    0.014730
     24          1           0        6.340190    0.025230    0.144700
     25          1           0        8.652900    0.763430    0.105820
     26         17           0        7.393010    5.563880   -0.046950
     27          6           0        9.672320    3.226870    0.016870
     28          9           0        9.921520    4.584150    0.021980
     29          9           0       10.249510    2.691380   -1.120640
     30          9           0       10.285780    2.676190    1.127830
 ---------------------------------------------------------------------
                    Distance matrix (angstroms):
                    1          2          3          4          5
     1  C    0.000000
     2  C    1.525902   0.000000
     3  C    2.524510   1.533055   0.000000
     4  N    3.809724   2.461221   1.452757   0.000000
     5  C    4.977839   3.756639   2.461707   1.363297   0.000000
     6  O    5.176850   4.233367   2.731250   2.230035   1.220555
     7  N    6.162451   4.809860   3.707402   2.359728   1.369352
     8  C    7.490754   6.196989   4.985023   3.735813   2.526091
     9  C    7.957476   6.832928   5.443114   4.446754   3.091429
    10  C    8.585054   7.199713   6.137740   4.776496   3.740839
    11  C    9.882753   8.533686   7.398160   6.087061   4.951724
    12  C   10.251777   9.016896   7.727894   6.561675   5.281070
    13  C    9.351078   8.236075   6.841374   5.841888   4.490760
    14  H    1.110381   2.167281   3.484970   4.621165   5.880117
    15  H    1.110907   2.177401   2.782271   4.124328   5.161138
    16  H    1.110887   2.177315   2.782947   4.124695   5.162879
    17  H    2.159826   1.111861   2.173016   2.715858   4.017963
    18  H    2.159894   1.111819   2.173392   2.716016   4.019683
    19  H    2.760771   2.170291   1.112497   2.100481   2.767814
    20  H    2.760285   2.169629   1.112493   2.100529   2.766155
    21  H    4.064498   2.558495   2.152096   1.032241   2.072001
    22  H    6.236687   4.775214   3.957704   2.506695   2.045360
    23  H    7.423797   6.448779   4.971550   4.221818   2.884914
    24  H    8.550028   7.090356   6.221759   4.788015   4.004031
    25  H   10.717022   9.318764   8.272450   6.908791   5.862705
    26  Cl  10.098941   9.174094   7.684281   6.934693   5.581095
    27  C   11.756688  10.533088   9.232232   8.078887   6.792493
    28  F   12.232642  11.117579   9.726072   8.707657   7.365867
    29  F   12.320900  11.068704   9.815818   8.629352   7.388965
    30  F   12.381653  11.104735   9.872528   8.655130   7.428779
                    6          7          8          9         10
     6  O    0.000000
     7  N    2.259164   0.000000
     8  C    2.893802   1.440099   0.000000
     9  C    2.866088   2.527374   1.413758   0.000000
    10  C    4.272984   2.432861   1.403954   2.412020   0.000000
    11  C    5.272273   3.728472   2.438935   2.787571   1.393613
    12  C    5.278307   4.287820   2.849719   2.444619   2.435942
    13  C    4.219814   3.802218   2.456037   1.403593   2.797422
    14  H    6.196836   6.975530   8.353222   8.920753   9.366012
    15  H    5.205374   6.399789   7.660485   8.025356   8.799581
    16  H    5.208482   6.400993   7.663025   8.003916   8.826687
    17  H    4.639057   4.910493   6.313955   7.075776   7.194300
    18  H    4.641905   4.911648   6.316564   7.050913   7.226996
    19  H    2.737791   4.050746   5.200273   5.469147   6.435337
    20  H    2.734502   4.049830   5.197796   5.502317   6.398967
    21  H    3.150789   2.554878   3.994351   4.959001   4.784123
    22  H    3.149782   1.032127   2.105890   3.409100   2.562233
    23  H    2.254784   2.824860   2.188054   1.073912   3.407546
    24  H    4.783026   2.638808   2.162362   3.403258   1.083107
    25  H    6.284406   4.568829   3.407088   3.870986   2.136025
    26  Cl   4.955265   5.220065   4.038288   2.697895   4.557975
    27  C    6.730557   5.800162   4.364525   3.870517   3.792086
    28  F    7.080991   6.560084   5.132973   4.287753   4.862874
    29  F    7.398274   6.346947   4.964845   4.644607   4.222010
    30  F    7.485778   6.341653   4.961156   4.665774   4.192494
                   11         12         13         14         15
    11  C    0.000000
    12  C    1.402969   0.000000
    13  C    2.422034   1.417764   0.000000
    14  H   10.700270  11.158271  10.321744   0.000000
    15  H   10.054789  10.346771   9.392251   1.804687   0.000000
    16  H   10.081342  10.354332   9.376872   1.804720   1.810930
    17  H    8.548957   9.135742   8.459649   2.485139   2.504733
    18  H    8.579702   9.143776   8.442016   2.485585   3.089812
    19  H    7.625562   7.826003   6.837181   3.773848   3.129927
    20  H    7.591454   7.817450   6.860078   3.772790   2.552664
    21  H    6.160728   6.837606   6.308782   4.673222   4.509611
    22  H    3.953650   4.792173   4.560885   6.921169   6.571223
    23  H    3.859957   3.390065   2.109226   8.444017   7.432689
    24  H    2.133588   3.402869   3.880224   9.230162   8.831076
    25  H    1.083676   2.161908   3.412165  11.482186  10.918629
    26  Cl   4.082085   2.807114   1.763257  11.140785  10.042616
    27  C    2.489242   1.517613   2.601704  12.671677  11.831084
    28  F    3.695129   2.428366   2.885407  13.207104  12.248178
    29  F    2.917460   2.365043   3.497769  13.207620  12.327874
    30  F    2.877498   2.365068   3.528686  13.255098  12.565607
                   16         17         18         19         20
    16  H    0.000000
    17  H    3.089705   0.000000
    18  H    2.504398   1.807779   0.000000
    19  H    2.553950   3.091240   2.506926   0.000000
    20  H    3.130974   2.505238   3.091021   1.811416   0.000000
    21  H    4.508886   2.556708   2.555299   2.873701   2.874580
    22  H    6.570719   4.740953   4.739993   4.430368   4.431465
    23  H    7.386300   6.798820   6.747520   4.871905   4.944215
    24  H    8.875193   6.978885   7.034266   6.628588   6.569829
    25  H   10.958849   9.266224   9.313143   8.549443   8.498635
    26  Cl  10.003025   9.505501   9.463069   7.519252   7.574065
    27  C   11.842024  10.644608  10.656225   9.304325   9.291867
    28  F   12.235306  11.311522  11.297021   9.692769   9.710773
    29  F   12.514955  11.050146  11.257633  10.023273   9.789986
    30  F   12.428670  11.249543  11.096168   9.895944  10.068706
                   21         22         23         24         25
    21  H    0.000000
    22  H    2.263001   0.000000
    23  H    4.924294   3.830316   0.000000
    24  H    4.562498   2.322839   4.325835   0.000000
    25  H    6.860745   4.603971   4.943604   2.427978   0.000000
    26  Cl   7.572498   6.100142   2.729488   5.641082   4.965378
    27  C    8.345247   6.259580   4.707998   4.622762   2.667521
    28  F    9.108752   7.168417   4.883939   5.798684   4.026702
    29  F    8.832424   6.716414   5.513228   4.898186   2.787536
    30  F    8.823690   6.667160   5.546917   4.854051   2.714674
                   26         27         28         29         30
    26  Cl   0.000000
    27  C    3.265110   0.000000
    28  F    2.712561   1.379977   0.000000
    29  F    4.190902   1.383411   2.235114   0.000000
    30  F    4.252879   1.383407   2.235151   2.248814   0.000000
 Stoichiometry    C11H12ClF3N2O
 Framework group  C1[X(C11H12ClF3N2O)]
 Deg. of freedom    84
 Full point group                 C1      NOp   1
 Largest Abelian subgroup         C1      NOp   1
 Largest concise Abelian subgroup C1      NOp   1
                         Standard orientation:                         
 ---------------------------------------------------------------------
 Center     Atomic      Atomic             Coordinates (Angstroms)
 Number     Number       Type             X           Y           Z
 ---------------------------------------------------------------------
      1          6           0        7.549081    0.498803    0.054881
      2          6           0        6.355960   -0.449372   -0.021285
      3          6           0        5.031004    0.319706    0.035880
      4          7           0        3.898668   -0.587484   -0.037087
      5          6           0        2.612364   -0.137229   -0.001419
      6          8           0        2.403046    1.061413    0.094479
      7          7           0        1.582381   -1.036665   -0.074037
      8          6           0        0.167349   -0.770179   -0.050488
      9          6           0       -0.407558    0.521384   -0.058264
     10          6           0       -0.701748   -1.872256   -0.016096
     11          6           0       -2.084937   -1.704015    0.009202
     12          6           0       -2.660874   -0.424733    0.001696
     13          6           0       -1.799406    0.700766   -0.032646
     14          1           0        8.492239   -0.085644    0.012198
     15          1           0        7.527788    1.070609    1.007089
     16          1           0        7.532266    1.209838   -0.798475
     17          1           0        6.407259   -1.162510    0.830207
     18          1           0        6.411196   -1.022883   -0.972168
     19          1           0        4.984536    1.032649   -0.816883
     20          1           0        4.981492    0.891313    0.989009
     21          1           0        4.073636   -1.601605   -0.117504
     22          1           0        1.851816   -2.029624   -0.156040
     23          1           0        0.183646    1.417575   -0.082892
     24          1           0       -0.304763   -2.879962   -0.008810
     25          1           0       -2.714442   -2.585717    0.035257
     26         17           0       -2.374978    2.367387   -0.045401
     27          6           0       -4.176569   -0.354609    0.031725
     28          9           0       -4.675651    0.930504   -0.029403
     29          9           0       -4.634314   -0.934912    1.201146
     30          9           0       -4.684676   -1.061312   -1.043548
 ---------------------------------------------------------------------
 Rotational constants (GHZ):      1.0611549      0.1229161      0.1127919
 General basis read from cards:  (6D, 7F)
 There are   370 symmetry adapted cartesian basis functions of A   symmetry.
 There are   370 symmetry adapted basis functions of A   symmetry.
   370 basis functions,   648 primitive gaussians,   370 cartesian basis functions
    72 alpha electrons       72 beta electrons
       nuclear repulsion energy      1413.4263362217 Hartrees.
 NAtoms=   30 NActive=   30 NUniq=   30 SFac= 1.00D+00 NAtFMM=   60 NAOKFM=F Big=F
 Integral buffers will be    131072 words long.
 Raffenetti 2 integral format.
 Two-electron integral symmetry is turned on.
 ------------------------------------------------------------------------------
 Polarizable Continuum Model (PCM)
 =================================
 Model                : PCM (using non-symmetric T matrix).
 Atomic radii         : SMD-Coulomb.
 Polarization charges : Total charges.
 Charge compensation  : None.
 Solution method      : On-the-fly selection.
 Cavity type          : VdW (van der Waals Surface) (Alpha=1.000).
 Cavity algorithm     : GePol (No added spheres)
                        Default sphere list used, NSphG=   30.
                        Lebedev-Laikov grids with approx.  5.0 points / Ang**2.
                        Smoothing algorithm: York/Karplus (Gamma=1.0000).
                        Polarization charges: spherical gaussians, with
                                              point-specific exponents (IZeta= 3).
                        Self-potential: point-specific (ISelfS= 7).
                        Self-field    : sphere-specific E.n sum rule (ISelfD= 2).
 1st derivatives      : Analytical E(r).r(x)/FMM algorithm (CHGder, D1EAlg=3).
                        Cavity 1st derivative terms included.
 Solvent              : Water, Eps=  78.355300 Eps(inf)=   1.777849
 ------------------------------------------------------------------------------
 ------------------------------------------------------------------------------
 Atomic radii for non-electrostatic terms: SMD-CDS.
 ------------------------------------------------------------------------------
 Nuclear repulsion after PCM non-electrostatic terms =     1413.4374683072 Hartrees.
 One-electron integrals computed using PRISM.
 NBasis=   370 RedAO= T EigKep=  1.19D-06  NBF=   370
 NBsUse=   369 1.00D-06 EigRej=  6.78D-07 NBFU=   369
 ExpMin= 4.38D-02 ExpMax= 2.52D+04 ExpMxC= 3.78D+03 IAcc=3 IRadAn=         5 AccDes= 0.00D+00
 Harris functional with IExCor= 1009 and IRadAn=       5 diagonalized for initial guess.
 HarFok:  IExCor= 1009 AccDes= 0.00D+00 IRadAn=         5 IDoV= 1 UseB2=F ITyADJ=14
 ICtDFT=  3500011 ScaDFX=  1.000000  1.000000  1.000000  1.000000
 FoFCou: FMM=F IPFlag=           0 FMFlag=      100000 FMFlg1=           0
         NFxFlg=           0 DoJE=T BraDBF=F KetDBF=T FulRan=T
         wScrn=  0.000000 ICntrl=     500 IOpCl=  0 I1Cent=   200000004 NGrid=           0
         NMat0=    1 NMatS0=      1 NMatT0=    0 NMatD0=    1 NMtDS0=    0 NMtDT0=    0
 Petite list used in FoFCou.
 Requested convergence on RMS density matrix=1.00D-08 within 128 cycles.
 Requested convergence on MAX density matrix=1.00D-06.
 Requested convergence on             energy=1.00D-06.
 No special actions if energy rises.
 Inv3:  Mode=1 IEnd=    17919408.
 Iteration    1 A*A^-1 deviation from unit magnitude is 6.00D-15 for   2430.
 Iteration    1 A*A^-1 deviation from orthogonality  is 2.96D-15 for   1283    497.
 Iteration    1 A^-1*A deviation from unit magnitude is 6.22D-15 for   2427.
 Iteration    1 A^-1*A deviation from orthogonality  is 5.89D-09 for    949    850.
 Iteration    2 A*A^-1 deviation from unit magnitude is 5.22D-15 for    608.
 Iteration    2 A*A^-1 deviation from orthogonality  is 3.17D-15 for   1067    304.
 Iteration    2 A^-1*A deviation from unit magnitude is 8.88D-16 for    272.
 Iteration    2 A^-1*A deviation from orthogonality  is 3.65D-16 for    845    635.
 Error on total polarization charges =  0.04612
 SCF Done:  E(RM062X) =  -1370.53580629     A.U. after   15 cycles
            NFock= 15  Conv=0.53D-08     -V/T= 2.0069
 SMD-CDS (non-electrostatic) energy       (kcal/mol) =       6.99
 (included in total energy above)

 **********************************************************************

            Population analysis using the SCF density.

 **********************************************************************

 Orbital symmetries:
       Occupied  (A) (A) (A) (A) (A) (A) (A) (A) (A) (A) (A) (A)
                 (A) (A) (A) (A) (A) (A) (A) (A) (A) (A) (A) (A)
                 (A) (A) (A) (A) (A) (A) (A) (A) (A) (A) (A) (A)
                 (A) (A) (A) (A) (A) (A) (A) (A) (A) (A) (A) (A)
                 (A) (A) (A) (A) (A) (A) (A) (A) (A) (A) (A) (A)
                 (A) (A) (A) (A) (A) (A) (A) (A) (A) (A) (A) (A)
       Virtual   (A) (A) (A) (A) (A) (A) (A) (A) (A) (A) (A) (A)
                 (A) (A) (A) (A) (A) (A) (A) (A) (A) (A) (A) (A)
                 (A) (A) (A) (A) (A) (A) (A) (A) (A) (A) (A) (A)
                 (A) (A) (A) (A) (A) (A) (A) (A) (A) (A) (A) (A)
                 (A) (A) (A) (A) (A) (A) (A) (A) (A) (A) (A) (A)
                 (A) (A) (A) (A) (A) (A) (A) (A) (A) (A) (A) (A)
                 (A) (A) (A) (A) (A) (A) (A) (A) (A) (A) (A) (A)
                 (A) (A) (A) (A) (A) (A) (A) (A) (A) (A) (A) (A)
                 (A) (A) (A) (A) (A) (A) (A) (A) (A) (A) (A) (A)
                 (A) (A) (A) (A) (A) (A) (A) (A) (A) (A) (A) (A)
                 (A) (A) (A) (A) (A) (A) (A) (A) (A) (A) (A) (A)
                 (A) (A) (A) (A) (A) (A) (A) (A) (A) (A) (A) (A)
                 (A) (A) (A) (A) (A) (A) (A) (A) (A) (A) (A) (A)
                 (A) (A) (A) (A) (A) (A) (A) (A) (A) (A) (A) (A)
                 (A) (A) (A) (A) (A) (A) (A) (A) (A) (A) (A) (A)
                 (A) (A) (A) (A) (A) (A) (A) (A) (A) (A) (A) (A)
                 (A) (A) (A) (A) (A) (A) (A) (A) (A) (A) (A) (A)
                 (A) (A) (A) (A) (A) (A) (A) (A) (A) (A) (A) (A)
                 (A) (A) (A) (A) (A) (A) (A) (A) (A) (A) (A) (A)
                 (A) (A) (A) (A) (A) (A) (A) (A) (A) (A) (A) (A)
                 (A) (A) (A) (A) (A) (A) (A) (A) (A) (A) (A) (A)
                 (A) (A) (A) (A) (A) (A) (A) (A) (A) (A) (A) (A)
                 (A) (A) (A) (A) (A) (A) (A) (A) (A) (A) (A) (A)
                 (A) (A) (A) (A) (A) (A) (A) (A) (A) (A) (A) (A)
                 (A) (A) (A) (A) (A) (A) (A) (A) (A)
 The electronic state is 1-A.
 Alpha  occ. eigenvalues -- -102.68463 -25.31254 -25.31094 -25.31069 -19.62002
 Alpha  occ. eigenvalues --  -14.81259 -14.78734 -10.83213 -10.69302 -10.64593
 Alpha  occ. eigenvalues --  -10.63507 -10.60042 -10.58388 -10.58123 -10.57646
 Alpha  occ. eigenvalues --  -10.57253 -10.54583 -10.53461  -9.83074  -7.55491
 Alpha  occ. eigenvalues --   -7.54818  -7.54776  -1.45289  -1.37458  -1.37339
 Alpha  occ. eigenvalues --   -1.19304  -1.05807  -1.02845  -1.00550  -0.94895
 Alpha  occ. eigenvalues --   -0.89830  -0.87288  -0.84912  -0.81387  -0.77405
 Alpha  occ. eigenvalues --   -0.73339  -0.71981  -0.68844  -0.68516  -0.67595
 Alpha  occ. eigenvalues --   -0.67024  -0.65826  -0.63239  -0.60849  -0.57716
 Alpha  occ. eigenvalues --   -0.57577  -0.55837  -0.55489  -0.54833  -0.54086
 Alpha  occ. eigenvalues --   -0.53844  -0.53054  -0.52386  -0.52204  -0.51354
 Alpha  occ. eigenvalues --   -0.50968  -0.49863  -0.48284  -0.46170  -0.45745
 Alpha  occ. eigenvalues --   -0.45525  -0.43575  -0.42367  -0.41702  -0.39487
 Alpha  occ. eigenvalues --   -0.39207  -0.38502  -0.38016  -0.35892  -0.32725
 Alpha  occ. eigenvalues --   -0.31623  -0.28883
 Alpha virt. eigenvalues --   -0.01124  -0.00150   0.01157   0.02157   0.02927
 Alpha virt. eigenvalues --    0.03652   0.03975   0.04249   0.04768   0.05390
 Alpha virt. eigenvalues --    0.05463   0.05943   0.06230   0.07202   0.07415
 Alpha virt. eigenvalues --    0.08022   0.08100   0.08709   0.09394   0.09417
 Alpha virt. eigenvalues --    0.09976   0.10285   0.10448   0.10686   0.11419
 Alpha virt. eigenvalues --    0.12424   0.12545   0.12653   0.13003   0.13658
 Alpha virt. eigenvalues --    0.13936   0.14423   0.15237   0.15849   0.16486
 Alpha virt. eigenvalues --    0.17012   0.17217   0.17923   0.18689   0.19290
 Alpha virt. eigenvalues --    0.19811   0.19963   0.20226   0.20402   0.20832
 Alpha virt. eigenvalues --    0.21753   0.22116   0.22293   0.22944   0.23167
 Alpha virt. eigenvalues --    0.23356   0.23983   0.24150   0.24493   0.24808
 Alpha virt. eigenvalues --    0.24915   0.25298   0.25776   0.25998   0.26827
 Alpha virt. eigenvalues --    0.27101   0.27831   0.28822   0.29193   0.29364
 Alpha virt. eigenvalues --    0.29678   0.29904   0.30234   0.30462   0.31337
 Alpha virt. eigenvalues --    0.31978   0.32291   0.32421   0.32918   0.33576
 Alpha virt. eigenvalues --    0.33635   0.34839   0.35291   0.36204   0.36273
 Alpha virt. eigenvalues --    0.36879   0.37090   0.37788   0.38572   0.39085
 Alpha virt. eigenvalues --    0.39673   0.40254   0.40922   0.41069   0.42260
 Alpha virt. eigenvalues --    0.42739   0.43712   0.44506   0.45183   0.45672
 Alpha virt. eigenvalues --    0.46354   0.49068   0.49693   0.50956   0.51900
 Alpha virt. eigenvalues --    0.52726   0.54879   0.57888   0.59815   0.60990
 Alpha virt. eigenvalues --    0.65249   0.67460   0.69134   0.69603   0.70445
 Alpha virt. eigenvalues --    0.70702   0.71722   0.72416   0.73227   0.74927
 Alpha virt. eigenvalues --    0.75787   0.75973   0.77425   0.78419   0.78707
 Alpha virt. eigenvalues --    0.79472   0.79816   0.81249   0.82193   0.82905
 Alpha virt. eigenvalues --    0.83191   0.84581   0.84883   0.86137   0.86850
 Alpha virt. eigenvalues --    0.89486   0.89714   0.90412   0.93069   0.94156
 Alpha virt. eigenvalues --    0.95335   0.95874   0.98284   0.99835   1.00553
 Alpha virt. eigenvalues --    1.01511   1.01612   1.02722   1.03715   1.04140
 Alpha virt. eigenvalues --    1.05246   1.05632   1.06663   1.08578   1.11120
 Alpha virt. eigenvalues --    1.11452   1.12094   1.13754   1.14243   1.14944
 Alpha virt. eigenvalues --    1.15849   1.17164   1.18898   1.19561   1.20709
 Alpha virt. eigenvalues --    1.22165   1.22519   1.23938   1.27457   1.27820
 Alpha virt. eigenvalues --    1.30191   1.31019   1.32300   1.34008   1.36221
 Alpha virt. eigenvalues --    1.38367   1.39299   1.40184   1.41499   1.43465
 Alpha virt. eigenvalues --    1.45457   1.46456   1.47064   1.48279   1.49177
 Alpha virt. eigenvalues --    1.50651   1.51424   1.55846   1.56068   1.57196
 Alpha virt. eigenvalues --    1.57530   1.59305   1.60766   1.63939   1.66694
 Alpha virt. eigenvalues --    1.66994   1.68255   1.69050   1.73032   1.73078
 Alpha virt. eigenvalues --    1.73968   1.74667   1.75918   1.77911   1.79289
 Alpha virt. eigenvalues --    1.80729   1.83291   1.84684   1.85383   1.85988
 Alpha virt. eigenvalues --    1.86711   1.87089   1.87498   1.87980   1.88914
 Alpha virt. eigenvalues --    1.90562   1.90707   1.92135   1.92853   1.94438
 Alpha virt. eigenvalues --    1.96366   1.98065   1.99017   2.01945   2.02411
 Alpha virt. eigenvalues --    2.02786   2.03954   2.05153   2.05272   2.06075
 Alpha virt. eigenvalues --    2.07371   2.08020   2.08805   2.08962   2.11536
 Alpha virt. eigenvalues --    2.13330   2.14272   2.16307   2.16629   2.20472
 Alpha virt. eigenvalues --    2.20558   2.22512   2.23144   2.24847   2.25874
 Alpha virt. eigenvalues --    2.27995   2.29502   2.30854   2.36230   2.36476
 Alpha virt. eigenvalues --    2.37742   2.38674   2.40507   2.41561   2.41657
 Alpha virt. eigenvalues --    2.47200   2.47379   2.49533   2.56273   2.59190
 Alpha virt. eigenvalues --    2.63430   2.63690   2.66225   2.66775   2.70160
 Alpha virt. eigenvalues --    2.72896   2.74564   2.76554   2.78019   2.78777
 Alpha virt. eigenvalues --    2.79624   2.83583   2.85576   2.91247   2.94935
 Alpha virt. eigenvalues --    2.98807   3.10216   3.11786   3.13246   3.25622
 Alpha virt. eigenvalues --    3.26354   3.27296   3.33065   3.39205   4.14753
 Alpha virt. eigenvalues --    4.25276   4.26558   4.29768   4.34448   4.39354
 Alpha virt. eigenvalues --    4.40864   4.42119   4.45681   4.46912   4.50017
 Alpha virt. eigenvalues --    4.58575   4.61362   4.67236   4.77708   5.44367
 Alpha virt. eigenvalues --    6.08866   6.85997
          Condensed to atoms (all electrons):
               1          2          3          4          5          6
     1  C    5.651564  -0.054072   0.031410  -0.001992  -0.050431  -0.003847
     2  C   -0.054072   6.120537  -0.334852  -0.081887   0.112626   0.017110
     3  C    0.031410  -0.334852   6.829600   0.297533  -0.493944  -0.082577
     4  N   -0.001992  -0.081887   0.297533   7.548685   0.463381  -0.209708
     5  C   -0.050431   0.112626  -0.493944   0.463381   6.564090   0.589550
     6  O   -0.003847   0.017110  -0.082577  -0.209708   0.589550   8.522720
     7  N   -0.003453   0.008662  -0.111586  -0.310923   0.175990  -0.102230
     8  C   -0.009195   0.011659  -0.369014  -0.139981  -0.629652  -0.356633
     9  C   -0.001167  -0.000016  -0.064251   0.020915   0.607464   0.384737
    10  C   -0.001646   0.005044  -0.096135  -0.070894  -1.611985  -0.099810
    11  C    0.000202  -0.000922   0.026019   0.010996   0.342782  -0.003947
    12  C   -0.000290   0.001722  -0.049469  -0.014867  -0.572547  -0.006833
    13  C   -0.000211   0.000736  -0.028121   0.003950  -0.158772   0.083684
    14  H    0.413241  -0.087591   0.027209   0.000480  -0.002269   0.000007
    15  H    0.415720  -0.063567  -0.008702   0.000479   0.000114  -0.000053
    16  H    0.416632  -0.063565  -0.008713   0.000469  -0.000806  -0.000051
    17  H   -0.031807   0.423413  -0.066921   0.006176  -0.013963  -0.000195
    18  H   -0.039345   0.430802  -0.082713   0.006093   0.000368  -0.000169
    19  H    0.002218  -0.042090   0.419959  -0.053924  -0.019743   0.003914
    20  H    0.003810  -0.043297   0.434079  -0.054083  -0.030109   0.004340
    21  H   -0.003692   0.000171  -0.060547   0.249190   0.016674   0.009011
    22  H   -0.000101   0.000634  -0.005552   0.010080  -0.041383   0.007143
    23  H   -0.000003   0.000094   0.000943  -0.000303  -0.005920  -0.000925
    24  H   -0.000001   0.000018  -0.000544   0.000384  -0.011290  -0.000010
    25  H    0.000000   0.000000   0.000027   0.000009   0.003613   0.000000
    26  Cl   0.000007  -0.000028   0.001610   0.001053   0.011793  -0.001357
    27  C   -0.000016   0.000093  -0.004633  -0.000379  -0.181006   0.001030
    28  F   -0.000000   0.000000  -0.000000  -0.000000   0.000227   0.000001
    29  F   -0.000000  -0.000000  -0.000001  -0.000000   0.000037  -0.000001
    30  F   -0.000000   0.000000  -0.000002  -0.000000  -0.000127  -0.000000
               7          8          9         10         11         12
     1  C   -0.003453  -0.009195  -0.001167  -0.001646   0.000202  -0.000290
     2  C    0.008662   0.011659  -0.000016   0.005044  -0.000922   0.001722
     3  C   -0.111586  -0.369014  -0.064251  -0.096135   0.026019  -0.049469
     4  N   -0.310923  -0.139981   0.020915  -0.070894   0.010996  -0.014867
     5  C    0.175990  -0.629652   0.607464  -1.611985   0.342782  -0.572547
     6  O   -0.102230  -0.356633   0.384737  -0.099810  -0.003947  -0.006833
     7  N    7.678534   0.044247  -0.380379   0.301779   0.129500  -0.026364
     8  C    0.044247  13.602650  -1.713357   0.283025  -0.207098  -2.260710
     9  C   -0.380379  -1.713357  12.501687  -5.809371   1.082425  -0.802518
    10  C    0.301779   0.283025  -5.809371  15.151220  -1.267807  -0.151787
    11  C    0.129500  -0.207098   1.082425  -1.267807  13.240275   2.272323
    12  C   -0.026364  -2.260710  -0.802518  -0.151787   2.272323  20.101148
    13  C    0.014292  -1.260514  -0.043964  -0.485298  -8.658278  -8.918416
    14  H    0.000007  -0.000042   0.000001  -0.000001   0.000000  -0.000000
    15  H    0.000017  -0.000001  -0.000016  -0.000001   0.000000   0.000000
    16  H    0.000015  -0.000022  -0.000036   0.000002   0.000000  -0.000000
    17  H   -0.000213  -0.001087  -0.000278   0.000018   0.000009  -0.000007
    18  H    0.000293  -0.000424   0.000035   0.000147  -0.000002   0.000001
    19  H   -0.000769  -0.000969   0.001132  -0.000184  -0.000046   0.000036
    20  H    0.000092  -0.007831   0.003986  -0.001109  -0.000010  -0.000063
    21  H    0.017840   0.016673   0.000089   0.000007  -0.000219   0.000104
    22  H    0.244022  -0.007917   0.040658  -0.030777   0.008197   0.007316
    23  H   -0.014422   0.070801   0.223432   0.066999  -0.031816   0.055787
    24  H   -0.011203   0.050652   0.044135   0.244571  -0.041741   0.017874
    25  H    0.000521   0.007716  -0.018839  -0.104834   0.236482   0.101702
    26  Cl   0.000299  -0.010562  -0.024352   0.065959   0.010349  -0.327045
    27  C   -0.012956  -1.089010  -0.783330   0.607017  -1.435461  -2.197573
    28  F   -0.000031   0.017921   0.023544  -0.008474   0.073411   0.209107
    29  F   -0.000043   0.006295  -0.010707   0.014260  -0.102769   0.250731
    30  F   -0.000016   0.004770  -0.010110   0.027858  -0.066269   0.250832
              13         14         15         16         17         18
     1  C   -0.000211   0.413241   0.415720   0.416632  -0.031807  -0.039345
     2  C    0.000736  -0.087591  -0.063567  -0.063565   0.423413   0.430802
     3  C   -0.028121   0.027209  -0.008702  -0.008713  -0.066921  -0.082713
     4  N    0.003950   0.000480   0.000479   0.000469   0.006176   0.006093
     5  C   -0.158772  -0.002269   0.000114  -0.000806  -0.013963   0.000368
     6  O    0.083684   0.000007  -0.000053  -0.000051  -0.000195  -0.000169
     7  N    0.014292   0.000007   0.000017   0.000015  -0.000213   0.000293
     8  C   -1.260514  -0.000042  -0.000001  -0.000022  -0.001087  -0.000424
     9  C   -0.043964   0.000001  -0.000016  -0.000036  -0.000278   0.000035
    10  C   -0.485298  -0.000001  -0.000001   0.000002   0.000018   0.000147
    11  C   -8.658278   0.000000   0.000000   0.000000   0.000009  -0.000002
    12  C   -8.918416  -0.000000   0.000000  -0.000000  -0.000007   0.000001
    13  C   24.222838  -0.000000   0.000001  -0.000001  -0.000009   0.000006
    14  H   -0.000000   0.480839  -0.023792  -0.023771  -0.002996  -0.002990
    15  H    0.000001  -0.023792   0.486670  -0.028333  -0.004547   0.003763
    16  H   -0.000001  -0.023771  -0.028333   0.486707   0.003764  -0.004559
    17  H   -0.000009  -0.002996  -0.004547   0.003764   0.489063  -0.030581
    18  H    0.000006  -0.002990   0.003763  -0.004559  -0.030581   0.489098
    19  H    0.000173  -0.000055  -0.000332   0.002597   0.003648  -0.005299
    20  H    0.000167  -0.000056   0.002621  -0.000326  -0.005315   0.003650
    21  H    0.000029  -0.000003   0.000000   0.000000   0.000540   0.000640
    22  H    0.002179  -0.000000  -0.000000  -0.000000   0.000001   0.000001
    23  H   -0.065706  -0.000000  -0.000000   0.000000  -0.000000  -0.000000
    24  H    0.000557  -0.000000  -0.000000   0.000000   0.000000  -0.000000
    25  H    0.109193  -0.000000   0.000000   0.000000  -0.000000   0.000000
    26  Cl  -0.047340   0.000000  -0.000000  -0.000000  -0.000000   0.000000
    27  C    1.654584  -0.000000  -0.000000  -0.000000  -0.000000   0.000000
    28  F   -0.221718  -0.000000  -0.000000  -0.000000  -0.000000   0.000000
    29  F   -0.124312  -0.000000  -0.000000  -0.000000  -0.000000  -0.000000
    30  F   -0.159724  -0.000000   0.000000  -0.000000  -0.000000   0.000000
              19         20         21         22         23         24
     1  C    0.002218   0.003810  -0.003692  -0.000101  -0.000003  -0.000001
     2  C   -0.042090  -0.043297   0.000171   0.000634   0.000094   0.000018
     3  C    0.419959   0.434079  -0.060547  -0.005552   0.000943  -0.000544
     4  N   -0.053924  -0.054083   0.249190   0.010080  -0.000303   0.000384
     5  C   -0.019743  -0.030109   0.016674  -0.041383  -0.005920  -0.011290
     6  O    0.003914   0.004340   0.009011   0.007143  -0.000925  -0.000010
     7  N   -0.000769   0.000092   0.017840   0.244022  -0.014422  -0.011203
     8  C   -0.000969  -0.007831   0.016673  -0.007917   0.070801   0.050652
     9  C    0.001132   0.003986   0.000089   0.040658   0.223432   0.044135
    10  C   -0.000184  -0.001109   0.000007  -0.030777   0.066999   0.244571
    11  C   -0.000046  -0.000010  -0.000219   0.008197  -0.031816  -0.041741
    12  C    0.000036  -0.000063   0.000104   0.007316   0.055787   0.017874
    13  C    0.000173   0.000167   0.000029   0.002179  -0.065706   0.000557
    14  H   -0.000055  -0.000056  -0.000003  -0.000000  -0.000000  -0.000000
    15  H   -0.000332   0.002621   0.000000  -0.000000  -0.000000  -0.000000
    16  H    0.002597  -0.000326   0.000000  -0.000000   0.000000   0.000000
    17  H    0.003648  -0.005315   0.000540   0.000001  -0.000000   0.000000
    18  H   -0.005299   0.003650   0.000640   0.000001  -0.000000  -0.000000
    19  H    0.493456  -0.038314   0.002043   0.000003  -0.000000   0.000000
    20  H   -0.038314   0.493032   0.002063   0.000007   0.000000   0.000000
    21  H    0.002043   0.002063   0.265072   0.002012   0.000001   0.000004
    22  H    0.000003   0.000007   0.002012   0.253844  -0.000113   0.004319
    23  H   -0.000000   0.000000   0.000001  -0.000113   0.409857  -0.000090
    24  H    0.000000   0.000000   0.000004   0.004319  -0.000090   0.424519
    25  H   -0.000000  -0.000000  -0.000000  -0.000007   0.000010  -0.003116
    26  Cl  -0.000000   0.000003   0.000002   0.000030  -0.000881  -0.000016
    27  C    0.000000  -0.000001   0.000005   0.000989   0.004835   0.009456
    28  F   -0.000000  -0.000000   0.000000  -0.000000   0.000079   0.000010
    29  F    0.000000  -0.000000   0.000000   0.000000   0.000007   0.000012
    30  F   -0.000000   0.000000   0.000000   0.000000   0.000007   0.000015
              25         26         27         28         29         30
     1  C    0.000000   0.000007  -0.000016  -0.000000  -0.000000  -0.000000
     2  C    0.000000  -0.000028   0.000093   0.000000  -0.000000   0.000000
     3  C    0.000027   0.001610  -0.004633  -0.000000  -0.000001  -0.000002
     4  N    0.000009   0.001053  -0.000379  -0.000000  -0.000000  -0.000000
     5  C    0.003613   0.011793  -0.181006   0.000227   0.000037  -0.000127
     6  O    0.000000  -0.001357   0.001030   0.000001  -0.000001  -0.000000
     7  N    0.000521   0.000299  -0.012956  -0.000031  -0.000043  -0.000016
     8  C    0.007716  -0.010562  -1.089010   0.017921   0.006295   0.004770
     9  C   -0.018839  -0.024352  -0.783330   0.023544  -0.010707  -0.010110
    10  C   -0.104834   0.065959   0.607017  -0.008474   0.014260   0.027858
    11  C    0.236482   0.010349  -1.435461   0.073411  -0.102769  -0.066269
    12  C    0.101702  -0.327045  -2.197573   0.209107   0.250731   0.250832
    13  C    0.109193  -0.047340   1.654584  -0.221718  -0.124312  -0.159724
    14  H   -0.000000   0.000000  -0.000000  -0.000000  -0.000000  -0.000000
    15  H    0.000000  -0.000000  -0.000000  -0.000000  -0.000000   0.000000
    16  H    0.000000  -0.000000  -0.000000  -0.000000  -0.000000  -0.000000
    17  H   -0.000000  -0.000000  -0.000000  -0.000000  -0.000000  -0.000000
    18  H    0.000000   0.000000   0.000000   0.000000  -0.000000   0.000000
    19  H   -0.000000  -0.000000   0.000000  -0.000000   0.000000  -0.000000
    20  H   -0.000000   0.000003  -0.000001  -0.000000  -0.000000   0.000000
    21  H   -0.000000   0.000002   0.000005   0.000000   0.000000   0.000000
    22  H   -0.000007   0.000030   0.000989  -0.000000   0.000000   0.000000
    23  H    0.000010  -0.000881   0.004835   0.000079   0.000007   0.000007
    24  H   -0.003116  -0.000016   0.009456   0.000010   0.000012   0.000015
    25  H    0.407003   0.000170  -0.030848   0.000398  -0.000083   0.000242
    26  Cl   0.000170  17.011869   0.063721  -0.022710   0.004476   0.004841
    27  C   -0.030848   0.063721   7.754435   0.019072   0.089337   0.074921
    28  F    0.000398  -0.022710   0.019072   9.308076  -0.038994  -0.038338
    29  F   -0.000083   0.004476   0.089337  -0.038994   9.235507  -0.049642
    30  F    0.000242   0.004841   0.074921  -0.038338  -0.049642   9.238757
 Mulliken charges:
               1
     1  C   -0.733535
     2  C   -0.361435
     3  C   -0.200111
     4  N   -0.680932
     5  C    0.935238
     6  O   -0.754900
     7  N   -0.641523
     8  C   -0.052388
     9  C    0.728451
    10  C   -1.027792
    11  C    0.383414
    12  C   -1.940195
    13  C    0.079996
    14  H    0.221783
    15  H    0.219961
    16  H    0.219996
    17  H    0.231287
    18  H    0.231186
    19  H    0.232546
    20  H    0.232664
    21  H    0.482291
    22  H    0.504417
    23  H    0.287327
    24  H    0.271486
    25  H    0.290641
    26  Cl   0.258109
    27  C    1.455718
    28  F   -0.321579
    29  F   -0.274109
    30  F   -0.278013
 Sum of Mulliken charges =  -0.00000
 Mulliken charges with hydrogens summed into heavy atoms:
               1
     1  C   -0.071795
     2  C    0.101038
     3  C    0.265099
     4  N   -0.198640
     5  C    0.935238
     6  O   -0.754900
     7  N   -0.137107
     8  C   -0.052388
     9  C    1.015778
    10  C   -0.756306
    11  C    0.674055
    12  C   -1.940195
    13  C    0.079996
    26  Cl   0.258109
    27  C    1.455718
    28  F   -0.321579
    29  F   -0.274109
    30  F   -0.278013
 Electronic spatial extent (au):  <R**2>=           8892.3067
 Charge=             -0.0000 electrons
 Dipole moment (field-independent basis, Debye):
    X=              7.5552    Y=             -8.5027    Z=             -0.5603  Tot=             11.3882
 Quadrupole moment (field-independent basis, Debye-Ang):
   XX=           -104.7116   YY=           -102.6366   ZZ=           -116.0311
   XY=            -12.5367   XZ=             -1.2648   YZ=              0.1993
 Traceless Quadrupole moment (field-independent basis, Debye-Ang):
   XX=              3.0815   YY=              5.1565   ZZ=             -8.2380
   XY=            -12.5367   XZ=             -1.2648   YZ=              0.1993
 Octapole moment (field-independent basis, Debye-Ang**2):
  XXX=            174.2456  YYY=            -45.5655  ZZZ=              0.7737  XYY=            -14.6078
  XXY=            -55.2705  XXZ=             -4.0401  XZZ=            -14.8772  YZZ=              5.3212
  YYZ=             -1.7341  XYZ=              0.8608
 Hexadecapole moment (field-independent basis, Debye-Ang**3):
 XXXX=          -9532.0099 YYYY=           -989.4934 ZZZZ=           -218.9355 XXXY=           -209.3178
 XXXZ=            -15.8969 YYYX=            -37.8810 YYYZ=              1.0848 ZZZX=             -0.3448
 ZZZY=              0.3860 XXYY=          -1806.5092 XXZZ=          -1722.5809 YYZZ=           -230.5548
 XXYZ=              1.1763 YYXZ=             -9.0547 ZZXY=             -3.1557
 N-N= 1.413437468307D+03 E-N=-6.051806913754D+03  KE= 1.361202457964D+03
 D1PCM: PCM CHGder 1st derivatives, ID1Alg=3 FixD1E=F DoIter=F DoCFld=F I1PDM=0.
 Calling FoFJK, ICntrl=      2127 FMM=F ISym2X=0 I1Cent= 0 IOpClX= 0 NMat=1 NMatS=1 NMatT=0.
 ***** Axes restored to original set *****
 -------------------------------------------------------------------
 Center     Atomic                   Forces (Hartrees/Bohr)
 Number     Number              X              Y              Z
 -------------------------------------------------------------------
      1        6          -0.004932407    0.001803281   -0.000370307
      2        6           0.004505236   -0.005486983    0.000803080
      3        6          -0.006337722    0.006773400   -0.001092072
      4        7           0.019416192   -0.028843043    0.004062114
      5        6          -0.016414849   -0.006809284    0.000940037
      6        8           0.002487054    0.036102920   -0.004860228
      7        7           0.023775616   -0.016881363    0.003729434
      8        6          -0.016053893    0.002033435   -0.000932502
      9        6           0.005592186   -0.001373400   -0.000097126
     10        6           0.003937498    0.000589330    0.000268131
     11        6          -0.010705085    0.006400922    0.000155717
     12        6          -0.002412784    0.016096542    0.000051668
     13        6           0.003850925   -0.016765696    0.000428835
     14        1           0.006171927    0.008947403   -0.000865528
     15        1          -0.001150440   -0.003633291    0.009553532
     16        1          -0.000562569   -0.005807115   -0.008483544
     17        1           0.001026539    0.004887952    0.008752862
     18        1           0.001615329    0.002667144   -0.009545764
     19        1           0.000782566   -0.004837195   -0.009346275
     20        1           0.000221283   -0.002423532    0.010284576
     21        1          -0.002285506    0.014350458   -0.001795831
     22        1           0.005633856    0.012139016   -0.002087005
     23        1          -0.007355720   -0.000231861    0.000236546
     24        1          -0.002113766   -0.001850740    0.000021263
     25        1           0.002287450    0.000054767   -0.000025390
     26       17          -0.005980702   -0.009127783    0.000203332
     27        6          -0.004473054    0.004177224    0.000020397
     28        9           0.005198317   -0.042231717   -0.000049444
     29        9          -0.002210273    0.014463297    0.030663155
     30        9          -0.003513206    0.014815912   -0.030623663
 -------------------------------------------------------------------
 Cartesian Forces:  Max     0.042231717 RMS     0.010773625

 GradGradGradGradGradGradGradGradGradGradGradGradGradGradGradGradGradGrad
 Berny optimization.
 FormGI is forming the generalized inverse of G from B-inverse, IUseBI=4.
 GSVD:  received Info=                   1 from GESDD.
 Internal  Forces:  Max     0.040599219 RMS     0.009009115
 Search for a local minimum.
 Step number   1 out of a maximum of  157
 All quantities printed in internal units (Hartrees-Bohrs-Radians)
 Mixed Optimization -- RFO/linear search
 Second derivative matrix not updated -- first step.
 ITU=  0
     Eigenvalues ---    0.00329   0.00423   0.00533   0.00994   0.01161
     Eigenvalues ---    0.01368   0.01468   0.01630   0.01719   0.01915
     Eigenvalues ---    0.01950   0.01975   0.01994   0.02090   0.02095
     Eigenvalues ---    0.02097   0.02122   0.02136   0.02177   0.03755
     Eigenvalues ---    0.04436   0.04933   0.05553   0.05673   0.05783
     Eigenvalues ---    0.08033   0.09179   0.10584   0.11426   0.11975
     Eigenvalues ---    0.12668   0.16000   0.16000   0.16000   0.16000
     Eigenvalues ---    0.16000   0.16000   0.16000   0.16000   0.21964
     Eigenvalues ---    0.22000   0.22000   0.22004   0.22365   0.23480
     Eigenvalues ---    0.24600   0.25000   0.25000   0.25000   0.25000
     Eigenvalues ---    0.25000   0.25000   0.25000   0.25000   0.29143
     Eigenvalues ---    0.29239   0.29805   0.30598   0.32337   0.32338
     Eigenvalues ---    0.32404   0.32408   0.32504   0.32506   0.32560
     Eigenvalues ---    0.35554   0.35622   0.36740   0.37886   0.39572
     Eigenvalues ---    0.40464   0.40874   0.42441   0.42458   0.43705
     Eigenvalues ---    0.44335   0.45049   0.46213   0.48484   0.48485
     Eigenvalues ---    0.49107   0.51101   0.52287   0.95138
 RFO step:  Lambda=-2.97809735D-02 EMin= 3.28692208D-03
 Linear search not attempted -- first point.
 Iteration  1 RMS(Cart)=  0.09542738 RMS(Int)=  0.00241890
 Iteration  2 RMS(Cart)=  0.00459641 RMS(Int)=  0.00030291
 Iteration  3 RMS(Cart)=  0.00001033 RMS(Int)=  0.00030285
 Iteration  4 RMS(Cart)=  0.00000001 RMS(Int)=  0.00030285
 Variable       Old X    -DE/DX   Delta X   Delta X   Delta X     New X
                                 (Linear)    (Quad)   (Total)
    R1        2.88354   0.00104   0.00000   0.00316   0.00316   2.88670
    R2        2.09832  -0.01063   0.00000  -0.02990  -0.02990   2.06842
    R3        2.09931  -0.01005   0.00000  -0.02832  -0.02832   2.07099
    R4        2.09927  -0.01005   0.00000  -0.02832  -0.02832   2.07096
    R5        2.89705  -0.00726   0.00000  -0.02259  -0.02259   2.87446
    R6        2.10111  -0.00964   0.00000  -0.02724  -0.02724   2.07388
    R7        2.10103  -0.00960   0.00000  -0.02712  -0.02712   2.07392
    R8        2.74531   0.00019   0.00000   0.00046   0.00046   2.74577
    R9        2.10231  -0.01019   0.00000  -0.02886  -0.02886   2.07345
   R10        2.10231  -0.01021   0.00000  -0.02890  -0.02890   2.07341
   R11        2.57626  -0.01012   0.00000  -0.01832  -0.01832   2.55794
   R12        1.95065  -0.01450   0.00000  -0.03192  -0.03192   1.91874
   R13        2.30651   0.03639   0.00000   0.03709   0.03709   2.34360
   R14        2.58770   0.00513   0.00000   0.00949   0.00949   2.59719
   R15        2.72139  -0.03634   0.00000  -0.08540  -0.08540   2.63600
   R16        1.95044  -0.01271   0.00000  -0.02796  -0.02796   1.92247
   R17        2.67162  -0.01624   0.00000  -0.03513  -0.03511   2.63650
   R18        2.65309  -0.00703   0.00000  -0.01453  -0.01451   2.63858
   R19        2.65241  -0.01032   0.00000  -0.02174  -0.02174   2.63066
   R20        2.02940   0.00496   0.00000   0.01248   0.01248   2.04188
   R21        2.63355  -0.01056   0.00000  -0.02101  -0.02101   2.61254
   R22        2.04678   0.00221   0.00000   0.00573   0.00573   2.05251
   R23        2.65123  -0.00602   0.00000  -0.01238  -0.01240   2.63883
   R24        2.04785   0.00162   0.00000   0.00419   0.00419   2.05204
   R25        2.67918  -0.01183   0.00000  -0.02599  -0.02601   2.65318
   R26        2.86787  -0.00689   0.00000  -0.02053  -0.02053   2.84734
   R27        3.33207  -0.00990   0.00000  -0.03072  -0.03072   3.30136
   R28        2.60778  -0.04060   0.00000  -0.07795  -0.07795   2.52983
   R29        2.61427  -0.03173   0.00000  -0.06165  -0.06165   2.55262
   R30        2.61426  -0.03205   0.00000  -0.06228  -0.06228   2.55198
    A1        1.91258   0.00283   0.00000   0.01595   0.01584   1.92842
    A2        1.92585   0.00206   0.00000   0.01033   0.01026   1.93611
    A3        1.92575   0.00207   0.00000   0.01035   0.01028   1.93603
    A4        1.89669  -0.00226   0.00000  -0.01087  -0.01098   1.88571
    A5        1.89676  -0.00228   0.00000  -0.01099  -0.01109   1.88567
    A6        1.90572  -0.00256   0.00000  -0.01551  -0.01553   1.89019
    A7        1.94141  -0.00189   0.00000  -0.00476  -0.00474   1.93667
    A8        1.90101   0.00190   0.00000   0.01433   0.01431   1.91533
    A9        1.90115   0.00186   0.00000   0.01398   0.01396   1.91511
   A10        1.91037  -0.00013   0.00000  -0.00408  -0.00408   1.90628
   A11        1.91092  -0.00012   0.00000  -0.00408  -0.00408   1.90683
   A12        1.89846  -0.00161   0.00000  -0.01556  -0.01569   1.88277
   A13        1.93745  -0.00427   0.00000  -0.01469  -0.01465   1.92281
   A14        1.90605   0.00171   0.00000   0.00815   0.00817   1.91421
   A15        1.90516   0.00183   0.00000   0.00912   0.00915   1.91431
   A16        1.90618   0.00154   0.00000   0.00734   0.00737   1.91355
   A17        1.90625   0.00150   0.00000   0.00733   0.00736   1.91361
   A18        1.90244  -0.00229   0.00000  -0.01747  -0.01748   1.88495
   A19        2.12688  -0.00370   0.00000  -0.01483  -0.01483   2.11205
   A20        2.07750  -0.00015   0.00000  -0.00316  -0.00316   2.07434
   A21        2.07881   0.00386   0.00000   0.01799   0.01799   2.09680
   A22        2.08083   0.01644   0.00000   0.05876   0.05876   2.13959
   A23        2.08446  -0.02603   0.00000  -0.09303  -0.09303   1.99143
   A24        2.11790   0.00959   0.00000   0.03427   0.03426   2.15216
   A25        2.23529  -0.00367   0.00000  -0.01470  -0.01470   2.22059
   A26        2.02614   0.00636   0.00000   0.03118   0.03117   2.05731
   A27        2.02175  -0.00269   0.00000  -0.01648  -0.01648   2.00527
   A28        2.17552  -0.00358   0.00000  -0.01310  -0.01312   2.16240
   A29        2.05263  -0.00351   0.00000  -0.01284  -0.01286   2.03976
   A30        2.05504   0.00709   0.00000   0.02594   0.02598   2.08102
   A31        2.11753  -0.00501   0.00000  -0.02016  -0.02014   2.09740
   A32        2.13962  -0.00302   0.00000  -0.01902  -0.01903   2.12059
   A33        2.02603   0.00803   0.00000   0.03918   0.03917   2.06520
   A34        2.11775  -0.00561   0.00000  -0.02107  -0.02105   2.09670
   A35        2.09857   0.00103   0.00000   0.00119   0.00118   2.09975
   A36        2.06687   0.00458   0.00000   0.01987   0.01986   2.08674
   A37        2.11464   0.00202   0.00000   0.00947   0.00944   2.12408
   A38        2.07005   0.00065   0.00000   0.00401   0.00402   2.07406
   A39        2.09850  -0.00267   0.00000  -0.01348  -0.01346   2.08504
   A40        2.06526  -0.00312   0.00000  -0.01060  -0.01065   2.05461
   A41        2.03983  -0.01210   0.00000  -0.04352  -0.04350   1.99632
   A42        2.17810   0.01522   0.00000   0.05412   0.05415   2.23225
   A43        2.09616   0.00463   0.00000   0.01643   0.01641   2.11257
   A44        2.03126  -0.00998   0.00000  -0.03562  -0.03561   1.99564
   A45        2.15577   0.00535   0.00000   0.01919   0.01920   2.17498
   A46        1.98598   0.01753   0.00000   0.06759   0.06568   2.05166
   A47        1.90478   0.01414   0.00000   0.04851   0.04718   1.95196
   A48        1.90481   0.01352   0.00000   0.04564   0.04442   1.94923
   A49        1.88432  -0.01506   0.00000  -0.04851  -0.05026   1.83406
   A50        1.88437  -0.01512   0.00000  -0.04990  -0.05147   1.83290
   A51        1.89782  -0.01715   0.00000  -0.07167  -0.07214   1.82568
    D1        3.14075   0.00000   0.00000   0.00008   0.00008   3.14083
    D2        1.03367   0.00011   0.00000  -0.00124  -0.00122   1.03246
    D3       -1.03459  -0.00011   0.00000   0.00118   0.00116  -1.03344
    D4        1.05291  -0.00026   0.00000  -0.00293  -0.00295   1.04996
    D5       -1.05416  -0.00015   0.00000  -0.00426  -0.00425  -1.05842
    D6       -3.12243  -0.00037   0.00000  -0.00184  -0.00188  -3.12431
    D7       -1.05457   0.00025   0.00000   0.00297   0.00299  -1.05158
    D8        3.12154   0.00036   0.00000   0.00165   0.00169   3.12323
    D9        1.05328   0.00014   0.00000   0.00406   0.00406   1.05734
   D10        3.14151  -0.00003   0.00000  -0.00056  -0.00056   3.14095
   D11        1.03885  -0.00036   0.00000  -0.00573  -0.00572   1.03313
   D12       -1.03950   0.00033   0.00000   0.00524   0.00523  -1.03428
   D13       -1.04011   0.00105   0.00000   0.01160   0.01159  -1.02852
   D14        3.14041   0.00072   0.00000   0.00643   0.00642  -3.13635
   D15        1.06206   0.00141   0.00000   0.01740   0.01737   1.07943
   D16        1.03942  -0.00107   0.00000  -0.01228  -0.01226   1.02715
   D17       -1.06324  -0.00140   0.00000  -0.01745  -0.01742  -1.08067
   D18        3.14159  -0.00071   0.00000  -0.00649  -0.00648   3.13511
   D19        3.13879   0.00007   0.00000   0.00115   0.00114   3.13994
   D20       -0.00200   0.00002   0.00000  -0.00001  -0.00001  -0.00200
   D21       -1.04180   0.00050   0.00000   0.00679   0.00678  -1.03503
   D22        2.10059   0.00045   0.00000   0.00563   0.00563   2.10622
   D23        1.03727  -0.00048   0.00000  -0.00571  -0.00570   1.03156
   D24       -2.10353  -0.00053   0.00000  -0.00686  -0.00685  -2.11038
   D25        0.00000  -0.00014   0.00000  -0.00285  -0.00286  -0.00286
   D26        3.14134   0.00005   0.00000   0.00088   0.00089  -3.14096
   D27        3.14080  -0.00009   0.00000  -0.00170  -0.00171   3.13909
   D28       -0.00105   0.00010   0.00000   0.00202   0.00204   0.00099
   D29        3.13923   0.00005   0.00000   0.00074   0.00072   3.13995
   D30       -0.00255   0.00028   0.00000   0.00569   0.00573   0.00318
   D31       -0.00263   0.00024   0.00000   0.00455   0.00451   0.00188
   D32        3.13878   0.00047   0.00000   0.00950   0.00951  -3.13489
   D33        0.09826   0.00009   0.00000   0.00150   0.00143   0.09970
   D34       -3.04223  -0.00016   0.00000  -0.00378  -0.00377  -3.04600
   D35       -3.04315  -0.00014   0.00000  -0.00344  -0.00345  -3.04659
   D36        0.09955  -0.00039   0.00000  -0.00872  -0.00865   0.09090
   D37       -3.14056  -0.00018   0.00000  -0.00378  -0.00379   3.13884
   D38        0.00002  -0.00011   0.00000  -0.00249  -0.00252  -0.00249
   D39       -0.00007   0.00007   0.00000   0.00149   0.00151   0.00144
   D40        3.14051   0.00014   0.00000   0.00278   0.00278  -3.13989
   D41        3.14090   0.00020   0.00000   0.00416   0.00418  -3.13811
   D42       -0.00085   0.00018   0.00000   0.00388   0.00389   0.00304
   D43        0.00033  -0.00003   0.00000  -0.00073  -0.00075  -0.00042
   D44       -3.14141  -0.00005   0.00000  -0.00101  -0.00104   3.14073
   D45       -0.00013  -0.00006   0.00000  -0.00131  -0.00132  -0.00145
   D46        3.14117  -0.00013   0.00000  -0.00271  -0.00270   3.13848
   D47       -3.14077  -0.00012   0.00000  -0.00249  -0.00252   3.13989
   D48        0.00053  -0.00019   0.00000  -0.00389  -0.00390  -0.00337
   D49       -0.00040  -0.00002   0.00000  -0.00022  -0.00023  -0.00063
   D50        3.14145   0.00002   0.00000   0.00054   0.00053  -3.14120
   D51        3.14135  -0.00000   0.00000   0.00006   0.00005   3.14140
   D52        0.00001   0.00004   0.00000   0.00082   0.00082   0.00083
   D53        0.00019   0.00003   0.00000   0.00043   0.00045   0.00064
   D54       -3.14115   0.00009   0.00000   0.00198   0.00194  -3.13921
   D55        3.14152  -0.00001   0.00000  -0.00034  -0.00032   3.14120
   D56        0.00018   0.00005   0.00000   0.00121   0.00117   0.00135
   D57        0.00007   0.00001   0.00000   0.00033   0.00033   0.00040
   D58       -3.14121   0.00009   0.00000   0.00184   0.00187  -3.13934
   D59        3.14138  -0.00006   0.00000  -0.00137  -0.00140   3.13998
   D60        0.00010   0.00001   0.00000   0.00015   0.00013   0.00024
   D61       -3.10045   0.00031   0.00000   0.00544   0.00549  -3.09495
   D62        1.07709  -0.00222   0.00000  -0.01226  -0.01272   1.06437
   D63       -0.99471   0.00232   0.00000   0.01930   0.01968  -0.97503
   D64        0.04142   0.00039   0.00000   0.00711   0.00717   0.04860
   D65       -2.06422  -0.00215   0.00000  -0.01059  -0.01104  -2.07526
   D66        2.14716   0.00240   0.00000   0.02097   0.02136   2.16852
         Item               Value     Threshold  Converged?
 Maximum Force            0.040599     0.000450     NO 
 RMS     Force            0.009009     0.000300     NO 
 Maximum Displacement     0.340842     0.001800     NO 
 RMS     Displacement     0.096546     0.001200     NO 
 Predicted change in Energy=-1.618053D-02
 GradGradGradGradGradGradGradGradGradGradGradGradGradGradGradGradGradGrad

                          Input orientation:                          
 ---------------------------------------------------------------------
 Center     Atomic      Atomic             Coordinates (Angstroms)
 Number     Number       Type             X           Y           Z
 ---------------------------------------------------------------------
      1          6           0       -1.946435    1.767256   -0.121517
      2          6           0       -0.560850    1.135529   -0.000860
      3          6           0        0.529130    2.192344   -0.094836
      4          7           0        1.838460    1.573439    0.022729
      5          6           0        2.968587    2.316329   -0.033581
      6          8           0        2.952179    3.546610   -0.189110
      7          7           0        4.126577    1.586827    0.092096
      8          6           0        5.434930    2.070103    0.071417
      9          6           0        5.763177    3.425451    0.028889
     10          6           0        6.458741    1.121126    0.100501
     11          6           0        7.780637    1.525714    0.086629
     12          6           0        8.134371    2.875870    0.042980
     13          6           0        7.097491    3.822051    0.014025
     14          1           0       -2.724427    1.000321   -0.053694
     15          1           0       -2.059817    2.281735   -1.082503
     16          1           0       -2.116135    2.494702    0.680373
     17          1           0       -0.418842    0.397878   -0.800922
     18          1           0       -0.474992    0.611508    0.959592
     19          1           0        0.397305    2.931226    0.705523
     20          1           0        0.453855    2.716401   -1.055850
     21          1           0        1.895358    0.567591    0.149102
     22          1           0        4.043858    0.579806    0.210523
     23          1           0        5.000589    4.190624    0.006972
     24          1           0        6.223022    0.061420    0.134546
     25          1           0        8.559947    0.769853    0.109451
     26         17           0        7.333906    5.551981   -0.044863
     27          6           0        9.619541    3.129657    0.030576
     28          9           0       10.030149    4.403784    0.044523
     29          9           0       10.214133    2.580530   -1.050878
     30          9           0       10.233145    2.552695    1.086186
 ---------------------------------------------------------------------
                    Distance matrix (angstroms):
                    1          2          3          4          5
     1  C    0.000000
     2  C    1.527575   0.000000
     3  C    2.511938   1.521100   0.000000
     4  N    3.792599   2.439059   1.453001   0.000000
     5  C    4.946379   3.721866   2.443374   1.353605   0.000000
     6  O    5.212206   4.264988   2.777425   2.275665   1.240181
     7  N    6.079446   4.710020   3.652838   2.289208   1.374376
     8  C    7.390095   6.068611   4.910139   3.630929   2.480826
     9  C    7.887354   6.725916   5.378765   4.339746   3.007289
    10  C    8.432898   7.020337   6.028760   4.643020   3.691566
    11  C    9.732297   8.351066   7.284345   5.942713   4.878048
    12  C   10.142916   8.867783   7.637140   6.429248   5.196563
    13  C    9.275406   8.115899   6.768395   5.719593   4.395146
    14  H    1.094560   2.168442   3.465291   4.599375   5.843176
    15  H    1.095919   2.175004   2.772386   4.113367   5.136758
    16  H    1.095903   2.174935   2.773048   4.113398   5.137699
    17  H    2.161094   1.097449   2.148794   2.675025   3.967865
    18  H    2.160948   1.097469   2.149214   2.674899   3.968759
    19  H    2.744438   2.154430   1.097224   2.094450   2.745153
    20  H    2.745041   2.154480   1.097200   2.094475   2.743896
    21  H    4.033833   2.525470   2.136799   1.015351   2.059923
    22  H    6.115873   4.642935   3.879025   2.426181   2.057014
    23  H    7.358693   6.345334   4.898718   4.104749   2.764716
    24  H    8.349580   6.869714   6.083902   4.639298   3.962856
    25  H   10.556146   9.128791   8.158384   6.769908   5.803046
    26  Cl  10.022712   9.046223   7.589113   6.784784   5.433744
    27  C   11.646934  10.373904   9.139467   7.935181   6.700806
    28  F   12.264478  11.083899   9.755986   8.666897   7.364049
    29  F   12.223115  10.922033   9.739814   8.504043   7.321381
    30  F   12.264487  10.940766   9.782258   8.518252   7.354151
                    6          7          8          9         10
     6  O    0.000000
     7  N    2.301964   0.000000
     8  C    2.900345   1.394909   0.000000
     9  C    2.822041   2.462315   1.395178   0.000000
    10  C    4.273503   2.378221   1.396278   2.408081   0.000000
    11  C    5.241571   3.654575   2.408098   2.771729   1.382496
    12  C    5.230572   4.210280   2.817277   2.434091   2.426968
    13  C    4.159417   3.718689   2.415931   1.392087   2.776775
    14  H    6.223004   6.877609   8.230140   8.827656   9.185257
    15  H    5.245775   6.335144   7.586011   7.983891   8.678268
    16  H    5.248839   6.335753   7.587470   7.960797   8.703531
    17  H    4.653237   4.782460   6.150119   6.933409   6.974009
    18  H    4.656161   4.783120   6.151710   6.906463   7.005312
    19  H    2.776048   4.011380   5.149882   5.430900   6.354802
    20  H    2.771661   4.010312   5.147770   5.465191   6.319865
    21  H    3.178964   2.453657   3.846056   4.810597   4.597089
    22  H    3.186440   1.017330   2.043384   3.329677   2.477255
    23  H    2.156197   2.747890   2.165506   1.080514   3.399526
[...]
 7,-0.00000028,-0.00000021,-0.00000071,-0.00000034,-0.00000019,0.000001
 04,-0.00000099,-0.00001240,-0.00000357,-0.00000665,0.00002238,-0.00000
 042,-0.00000410,0.00000408,-0.00002064,-0.00002564,0.00007641,0.000564
 59,0.00005672,0.00012876,0.00007977,-0.00024059,-0.00834320,-0.0378497
 7,0.02980859,-0.00000532,-0.00001279,0.00000284,-0.00001304,0.00002922
 ,-0.00000697,0.00004041,-0.00007388,0.00001528,-0.00031963,0.00005843,
 -0.00004984,0.00028899,-0.00067006,0.00026302,-0.00004798,0.00024455,-
 0.00006835,-0.00125070,0.00126552,-0.00028674,-0.00334466,-0.00243190,
 0.00019484,-0.00038611,-0.00079154,0.00008133,-0.01580899,0.02082714,-
 0.00259008,-0.20709988,0.14833297,-0.01888730,0.01030054,-0.00605237,0
 .00078719,0.00000554,-0.00165255,0.00017270,-0.00000593,0.00000159,-0.
 00000052,-0.00000008,0.00000057,-0.00000067,-0.00000026,0.00000078,0.0
 0000031,0.00000021,-0.00000223,-0.00000085,0.00000050,-0.00000164,0.00
 000169,-0.00001447,0.00000879,0.00000122,-0.00001331,0.00000663,-0.000
 00449,0.00001177,0.00002666,-0.00000422,0.00004367,0.00008007,-0.00003
 574,0.00004908,0.00011854,-0.00001132,0.00140148,0.00006207,0.00005569
 ,0.21886699,-0.00000151,-0.00000233,0.00000093,-0.00000486,0.00000524,
 -0.00000123,-0.00000210,-0.00002290,-0.00000036,-0.00005012,0.00005134
 ,-0.00001762,-0.00016259,-0.00012643,0.00003777,0.00001960,0.00001652,
 0.00000292,-0.00016261,0.00060987,-0.00013198,-0.00291906,0.00012461,0
 .00086434,-0.00053612,-0.00007533,-0.00013457,-0.00831224,0.01093551,-
 0.00074148,0.14755342,-0.20495599,0.02103709,0.02046788,-0.01544143,0.
 00256165,-0.00282292,-0.00278094,0.00100265,-0.00000099,0.00000044,-0.
 00000014,0.00000002,0.00000006,-0.00000003,0.00000012,0.00000006,-0.00
 000001,0.00000017,-0.00000002,0.00000009,0.00000027,-0.00000001,0.,0.0
 0000035,0.00000138,0.00000037,0.00000042,0.00000109,-0.00000090,0.0000
 0315,0.00000201,-0.00000109,0.00004198,-0.00001332,-0.00000523,0.00008
 247,0.00006091,-0.00006420,0.00032150,0.00056948,-0.00062719,-0.155825
 14,0.21204272,0.00000026,0.00000061,0.00000061,0.00000037,-0.00000085,
 0.00000221,0.00000086,0.00000863,0.00001416,0.00000392,-0.00000510,0.0
 0000187,0.00002858,-0.00008598,-0.00026173,0.00001711,0.00001794,0.000
 03841,0.00003369,-0.00006144,-0.00005399,0.00020685,0.00079886,0.00754
 295,0.00016426,-0.00003644,-0.00108197,0.00073628,-0.00059739,0.005049
 28,-0.01878176,0.02103158,-0.04236858,-0.00238398,0.00240298,0.0042356
 7,0.00029604,0.00096693,0.00560572,0.00000024,-0.00000013,-0.00000012,
 -0.00000011,0.00000018,-0.00000018,0.00000039,-0.00000015,-0.00000010,
 0.00000010,-0.00000007,-0.00000003,-0.00000019,0.00000017,-0.00000018,
 -0.00000453,-0.00000022,-0.00000097,0.00000440,-0.00000008,-0.00000056
 ,-0.00000262,-0.00000323,-0.00000145,-0.00000430,0.00001314,0.00005033
 ,-0.00000015,-0.00005805,-0.00043568,0.00002138,-0.00063331,-0.0046545
 5,0.02015383,-0.02342988,0.02978132,-0.00000460,-0.00001253,0.00000180
 ,-0.00000916,0.00002655,-0.00000405,0.00006025,-0.00005685,0.00002429,
 -0.00033259,-0.00003445,-0.00001686,0.00078287,-0.00042036,0.00016623,
 -0.00016716,0.00021119,-0.00006577,-0.00019293,-0.00169329,0.00015756,
 -0.00413914,0.00355309,-0.00033699,-0.00728216,-0.03612207,0.00393829,
 0.00189211,-0.00107559,0.00017436,-0.00386158,-0.00035412,-0.00004902,
 0.00873665,0.01489043,-0.00168422,-0.04594603,-0.02523944,0.00267529,-
 0.00000623,0.00000146,-0.00000052,-0.00000028,0.00000069,-0.00000089,-
 0.00000052,0.00000090,0.00000049,0.00000056,-0.00000232,-0.00000066,0.
 00000031,-0.00000224,0.00000137,-0.00001989,0.00001138,0.00000024,-0.0
 0001610,0.00000715,-0.00000492,0.00001602,0.00003908,-0.00001336,-0.00
 040336,0.00001730,-0.00005216,0.00047753,-0.00162327,0.00016204,0.0001
 6383,-0.00009960,0.00002392,0.00030522,0.00060795,-0.00007907,0.055599
 71,-0.00001422,-0.00003507,0.00000651,-0.00002406,0.00007803,-0.000016
 39,0.00018526,-0.00016020,0.00007280,-0.00100354,-0.00018109,-0.000051
 84,0.00227142,-0.00126295,0.00045023,-0.00069228,0.00058953,-0.0002163
 8,-0.00195354,-0.00174679,0.00012271,-0.00125898,0.00688937,-0.0000048
 3,-0.01265084,-0.03248827,0.00409516,0.00052110,-0.00262032,0.00024186
 ,0.00617732,-0.00074447,0.00049624,-0.00910307,-0.03617129,0.00450821,
 -0.02441944,-0.16255758,0.01543760,-0.00001732,0.00000479,-0.00000165,
 -0.00000104,0.00000166,-0.00000235,-0.00000187,0.00000218,0.00000122,0
 .00000151,-0.00000650,-0.00000064,0.00000034,-0.00000586,0.00000322,-0
 .00006568,0.00003085,0.00000233,-0.00005358,0.00001950,-0.00001484,0.0
 0002771,0.00010118,-0.00002168,-0.00041732,0.00018164,-0.00012729,0.00
 140142,0.00122002,-0.00050749,-0.00020081,-0.00016659,-0.00004337,-0.0
 0099882,-0.00150171,0.00023706,0.04218494,0.23213021,0.00000083,0.0000
 0197,-0.00000093,0.00000215,-0.00000706,0.00000312,-0.00001528,0.00001
 684,0.00000551,0.00008601,0.00000451,-0.00000995,-0.00020847,0.0001223
 9,-0.00000136,0.00002471,-0.00006198,0.00005535,0.00011530,0.00011237,
 -0.00006608,0.00016936,0.00009669,0.00578298,0.00117786,0.00384628,0.0
 0421556,-0.00001638,0.00018813,-0.00101959,-0.00076171,0.00050805,0.00
 419307,0.00089934,0.00485671,0.00321054,0.00289729,0.01548155,-0.02612
 823,0.00000144,-0.00000030,0.,0.00000014,0.,0.00000012,0.00000015,-0.0
 0000025,-0.00000040,-0.00000040,0.00000068,-0.00000011,0.00000010,0.00
 000049,-0.00000048,0.00000437,-0.00000082,0.00000021,0.00000543,-0.000
 00310,0.00000190,-0.00000460,-0.00001250,-0.00000643,0.00003702,-0.000
 04795,-0.00017520,-0.00010023,-0.00050952,-0.00293890,0.00003296,-0.00
 005347,-0.00054751,0.00010833,0.00021311,0.00028768,-0.00456524,-0.024
 62242,0.01611878,0.00005201,0.00012451,-0.00002602,0.00006417,-0.00028
 888,0.00006089,-0.00071261,0.00045334,-0.00024484,0.00394958,0.0009505
 4,0.00017955,-0.00968891,0.00675563,-0.00175783,0.00160434,-0.00329171
 ,0.00093419,0.01701480,0.00122096,0.00011998,-0.01305012,-0.00465934,0
 .00074218,0.00748925,0.00742468,-0.00116613,0.01045633,0.00015248,0.00
 042316,-0.01041967,-0.02045413,0.00251125,-0.21080274,-0.03460672,0.00
 342387,-0.03052288,0.01115786,-0.00146239,0.00006510,-0.00001538,0.000
 00577,0.00000330,-0.00000647,0.00000637,0.00000490,-0.00000726,-0.0000
 0214,-0.00000518,0.00002712,0.00000588,-0.00000343,0.00002169,-0.00001
 502,0.00029499,-0.00009940,-0.00000468,0.00024089,-0.00006450,0.000052
 55,-0.00005563,-0.00041262,0.00004025,0.00038243,-0.00101175,-0.000029
 29,0.00012003,-0.00004803,-0.00004617,0.00130773,0.00068069,-0.0000768
 5,-0.00056210,0.00232455,-0.00033481,-0.00202911,-0.00567553,0.0007413
 0,0.60361114,0.00001444,0.00003618,-0.00000813,0.00001927,-0.00008720,
 0.00001846,-0.00021979,0.00014005,-0.00006561,0.00116578,0.00030335,0.
 00004064,-0.00279841,0.00182478,-0.00048028,0.00064096,-0.00082246,0.0
 0025877,0.00482578,0.00057761,-0.00005883,-0.00275088,-0.00503057,0.00
 050794,0.00748674,-0.00098912,0.00069445,0.00100511,-0.00630697,0.0016
 5153,-0.03007848,-0.00327544,0.00031956,-0.02507460,-0.10052810,0.0043
 5701,0.01810311,0.01940906,-0.00249444,0.00001924,-0.00000491,0.000001
 82,0.00000119,-0.00000147,0.00000229,0.00000203,-0.00000235,-0.0000012
 9,-0.00000243,0.00000724,0.00000029,-0.00000071,0.00000763,-0.00000379
 ,0.00008702,-0.00003256,-0.00000358,0.00007236,-0.00001829,0.00001518,
 -0.00001678,-0.00011771,0.00002180,0.00017565,-0.00028565,0.00000557,0
 .00102949,0.00066305,0.00002139,-0.00102403,0.00008214,0.00002074,-0.0
 0023850,-0.00207283,-0.00018568,-0.00162571,-0.00321071,0.00006471,0.0
 0901040,0.52332478,-0.00000179,-0.00000701,-0.00000016,-0.00000086,0.0
 0000788,0.00000045,0.00001847,-0.00000521,0.00004377,-0.00011240,-0.00
 002131,0.00005641,0.00023103,-0.00023063,-0.00010127,0.00006119,0.0000
 7422,-0.00007937,-0.00035283,-0.00021332,-0.00072516,0.00011468,0.0004
 3150,-0.00089905,-0.00068377,0.00089993,0.00524980,-0.00013608,0.00148
 188,0.00627159,0.00358149,0.00060989,0.00191914,0.00260004,0.00408302,
 -0.06455992,-0.00259614,-0.00257555,-0.00264384,-0.00000087,0.00000085
 ,0.00000109,-0.00000082,0.00000202,-0.00000223,-0.00000019,-0.00000028
 ,0.00000031,-0.00000327,-0.00000389,-0.00000158,0.00000244,0.00000251,
 -0.00000073,-0.00001227,-0.00000552,-0.00000493,0.00000053,0.00000871,
 -0.00001304,-0.00001006,0.00002211,0.00003475,-0.00002415,0.00005188,0
 .00010636,-0.00017203,0.00005043,0.00108815,0.00013010,0.00002802,0.00
 036857,0.00003621,-0.00021860,-0.00366048,0.00021888,0.00005124,-0.003
 20809,-0.00137052,-0.00521600,0.47597049,-0.00001394,-0.00003336,0.000
 00735,-0.00001767,0.00007631,-0.00001674,0.00018778,-0.00012231,0.0000
 6459,-0.00105103,-0.00024231,-0.00002885,0.00255614,-0.00180944,0.0004
 2148,-0.00042911,0.00088524,-0.00024960,-0.00452901,-0.00027292,-0.000
 14529,0.00364214,0.00057779,-0.00038245,-0.00127826,-0.00134687,0.0010
 5261,-0.00293433,-0.00040640,0.00165504,-0.00257425,0.00424052,-0.0028
 4804,-0.01275044,-0.03052611,-0.02799215,0.00356469,-0.00304917,0.0008
 3221,-0.00001734,0.00000408,-0.00000156,-0.00000094,0.00000168,-0.0000
 0173,-0.00000138,0.00000205,0.00000066,0.00000212,-0.00000660,-0.00000
 119,0.00000055,-0.00000590,0.00000426,-0.00007972,0.00002523,0.0000002
 3,-0.00006121,0.00001851,-0.00001449,0.00001485,0.00010862,-0.00000959
 ,-0.00008300,0.00028076,0.00004054,0.00000212,-0.00000796,0.00007984,-
 0.00055763,-0.00015060,0.00028207,0.00025192,-0.00015497,-0.00067068,-
 0.00201368,0.00241456,-0.00180747,-0.09674743,-0.04110837,-0.04405929,
 0.08829313,-0.00000997,-0.00002458,0.00000532,-0.00001314,0.00005727,-
 0.00001279,0.00014089,-0.00008941,0.00004977,-0.00078092,-0.00017813,-
 0.00001838,0.00191245,-0.00137437,0.00031084,-0.00028745,0.00066839,-0
 .00018406,-0.00345909,-0.00023033,-0.00015239,0.00262668,0.00106009,-0
 .00026991,-0.00173033,-0.00082609,0.00103232,-0.00194958,0.00039347,0.
 00098672,-0.00071367,0.00254229,-0.00123652,-0.01573008,-0.00994518,-0
 .01975305,0.00123117,-0.00571686,0.00006328,-0.00001275,0.00000314,-0.
 00000123,-0.00000075,0.00000112,-0.00000133,-0.00000127,0.00000166,0.0
 0000073,0.00000161,-0.00000484,-0.00000076,0.00000059,-0.00000453,0.00
 000304,-0.00006074,0.00001883,0.00000042,-0.00004636,0.00001336,-0.000
 01140,0.00001104,0.00008179,-0.00000659,-0.00005962,0.00021091,0.00001
 773,-0.00015844,-0.00002856,0.00010673,-0.00029333,-0.00011490,0.00010
 934,0.00029725,0.00030230,-0.00058856,0.00321337,0.00106610,0.00095964
 ,-0.04352805,-0.14136758,-0.08454332,0.04270976,0.20607115,-0.00000601
 ,-0.00001532,0.00000244,-0.00000841,0.00003516,-0.00000782,0.00008676,
 -0.00005861,0.00003186,-0.00048434,-0.00011091,-0.00001260,0.00115461,
 -0.00080229,0.00017526,-0.00022426,0.00038754,-0.00010496,-0.00202982,
 -0.00009505,-0.00003932,0.00161625,0.00053285,-0.00018452,-0.00098854,
 -0.00048576,0.00028617,-0.00098897,-0.00061488,0.00043630,-0.00256615,
 0.00171226,-0.00138359,-0.00766301,-0.01463801,-0.00433259,0.00206337,
 -0.00209089,0.00093775,-0.00000803,0.00000199,-0.00000081,-0.00000026,
 0.00000052,-0.00000047,-0.00000101,0.00000130,0.00000052,0.00000094,-0
 .00000245,-0.00000030,0.00000027,-0.00000324,0.00000253,-0.00003687,0.
 00001260,0.00000084,-0.00002735,0.00000830,-0.00000606,0.00000702,0.00
 004915,-0.00000785,-0.00002777,0.00012510,0.00000702,-0.00002552,-0.00
 002089,-0.00000426,-0.00037283,-0.00008505,0.00013152,0.00014829,0.000
 21609,-0.00015400,-0.00077003,0.00162101,-0.00027751,-0.04928056,-0.08
 292093,-0.15617098,0.05346004,0.14891442,0.25132064,-0.00001437,-0.000
 03375,0.00000791,-0.00001747,0.00007785,-0.00001598,0.00018987,-0.0001
 2377,0.00005722,-0.00105655,-0.00025472,-0.00006995,0.00257940,-0.0017
 9354,0.00055632,-0.00045155,0.00088571,-0.00026269,-0.00456620,-0.0001
 9211,0.00006823,0.00364963,0.00063555,0.00007981,-0.00131036,-0.001562
 87,-0.00054082,-0.00281725,-0.00083220,-0.00172118,-0.00273902,0.00476
 441,0.00175619,-0.01290650,-0.02364364,0.03419094,0.00352907,-0.003060
 90,-0.00004532,-0.00001742,0.00000415,-0.00000145,-0.00000089,0.000001
 80,-0.00000191,-0.00000126,0.00000196,0.00000060,0.00000090,-0.0000076
 4,-0.00000180,0.00000125,-0.00000564,0.00000363,-0.00007646,0.00002773
 ,0.00000200,-0.00006708,0.00001623,-0.00001309,0.00001582,0.00010908,-
 0.00001150,-0.00008001,0.00025855,-0.00002916,0.00001473,-0.00002132,-
 0.00004444,-0.00056063,-0.00020514,-0.00025239,0.00025454,0.00002246,0
 .00070835,-0.00199885,0.00262688,0.00124689,-0.09819930,-0.03068637,0.
 05306442,0.01386775,0.00322827,-0.00375761,0.08987853,-0.00000829,-0.0
 0002061,0.00000455,-0.00001093,0.00004795,-0.00000996,0.00011847,-0.00
 007493,0.00003591,-0.00064722,-0.00015461,-0.00004597,0.00160699,-0.00
 113435,0.00033502,-0.00025987,0.00056313,-0.00015544,-0.00292819,-0.00
 014296,0.00009302,0.00222243,0.00092256,-0.00007393,-0.00148858,-0.000
 90813,-0.00065427,-0.00163324,0.00028411,-0.00111303,-0.00016845,0.002
 24797,0.00040739,-0.01375848,-0.00221849,0.01929909,0.00077278,-0.0049
 3228,0.00127850,-0.00001061,0.00000268,-0.00000089,-0.00000062,0.00000
 114,-0.00000139,-0.00000093,0.00000125,0.00000054,0.00000094,-0.000004
 39,-0.00000075,0.00000085,-0.00000342,0.00000209,-0.00004781,0.0000171
 2,0.00000175,-0.00004287,0.00000949,-0.00000792,0.00001025,0.00006660,
 -0.00000898,-0.00005181,0.00016894,-0.00000383,-0.00013562,-0.00004259
 ,-0.00008005,-0.00020414,-0.00010478,-0.00005866,0.00025800,0.00037691
 ,0.00047814,0.00323309,0.00049876,-0.00114622,-0.03184588,-0.10582581,
 0.07243392,0.00407694,0.01542260,-0.01892907,0.03043563,0.14355280,0.0
 0000867,0.00002040,-0.00000477,0.00001055,-0.00004735,0.00000962,-0.00
 011450,0.00007506,-0.00003979,0.00063876,0.00015077,0.00003986,-0.0015
 4444,0.00107366,-0.00031710,0.00029038,-0.00052381,0.00016392,0.002735
 59,0.00010661,-0.00000970,-0.00212847,-0.00080368,-0.00001005,0.001373
 49,0.00077018,0.00024204,0.00130141,0.00066882,0.00062162,0.00269476,-
 0.00253225,-0.00102105,0.01081707,0.01399215,-0.01167874,-0.00225464,0
 .00340003,0.00010919,0.00001055,-0.00000269,0.00000087,0.00000078,-0.0
 0000129,0.00000156,0.00000052,-0.00000076,-0.00000029,-0.00000046,0.00
 000522,0.00000109,-0.00000066,0.00000303,-0.00000145,0.00004607,-0.000
 01640,-0.00000107,0.00004088,-0.00001030,0.00000879,-0.00001000,-0.000
 06630,0.00000445,0.00003963,-0.00015948,0.00000814,0.00005307,0.000026
 86,-0.00000549,0.00042406,0.00013542,0.00012850,-0.00021182,-0.0003445
 5,-0.00020951,0.00014902,-0.00174288,0.00026317,0.05884124,0.07089847,
 -0.19146847,0.00367582,-0.00502940,-0.08871088,-0.06350605,-0.12372636
 ,0.31310961,-0.00001231,-0.00002989,0.00000546,-0.00001595,0.00006784,
 -0.00001421,0.00016860,-0.00011747,0.00006473,-0.00092290,-0.00024211,
 -0.00002899,0.00213688,-0.00132243,0.00033728,-0.00060729,0.00059698,-
 0.00022743,-0.00350464,-0.00026936,-0.00002153,0.00258564,0.00149873,-
 0.00017354,-0.00282168,0.00175733,-0.00014172,-0.00133193,0.00082841,-
 0.00019832,-0.00053553,0.00195623,-0.00035346,-0.03450923,0.04206185,-
 0.00480708,-0.00470767,-0.00924174,0.00109731,-0.00001566,0.00000359,-
 0.00000131,-0.00000066,0.00000166,-0.00000143,-0.00000112,0.00000170,0
 .00000041,0.00000103,-0.00000655,-0.00000141,0.00000028,-0.00000548,0.
 00000360,-0.00006604,0.00002427,0.00000099,-0.00005299,0.00001625,-0.0
 0001227,0.00000977,0.00009266,-0.00000969,-0.00009425,0.00021146,-0.00
 000822,-0.00048844,-0.00043599,0.00006993,-0.00019357,-0.00015164,0.00
 001868,-0.00294840,-0.00049105,-0.00011471,0.00038833,0.00073948,-0.00
 007119,-0.17386188,0.09196645,-0.01052215,0.01275720,0.01346245,0.0107
 2979,0.01289970,0.01050720,-0.01338132,0.19574471,0.00000427,0.0000096
 4,-0.00000194,0.00000363,-0.00002215,0.00000474,-0.00005761,0.00003175
 ,-0.00002008,0.00031158,0.00010058,0.00000610,-0.00079616,0.00045323,-
 0.00011576,0.00018955,-0.00021570,0.00008193,0.00128937,0.00027484,-0.
 00002144,-0.00145736,-0.00039765,0.00006185,0.00052386,-0.00029230,-0.
 00006784,0.00056188,0.00121925,-0.00007100,-0.00369679,-0.00469907,0.0
 0041705,0.00964217,-0.00553095,0.00138429,0.00024460,0.00246969,-0.000
 04351,0.00000519,-0.00000109,0.00000045,0.00000013,-0.00000058,0.00000
 024,0.00000020,-0.00000042,0.00000016,-0.00000004,0.00000246,0.0000008
 0,0.00000006,0.00000176,-0.00000152,0.00002381,-0.00000742,0.00000048,
 0.00001889,-0.00000536,0.00000368,-0.00000201,-0.00003374,0.00000229,0
 .00006407,-0.00007784,-0.00000595,0.00013646,0.00014318,-0.00005647,0.
 00011543,0.00003475,0.00000097,-0.00286739,0.00189279,-0.00026967,0.00
 036326,0.00004558,-0.00000852,0.10571118,-0.17639615,0.01280062,0.0238
 2125,-0.06800911,-0.03274492,0.01932735,-0.04861668,0.04368081,-0.1534
 8082,0.29762673,-0.00000065,-0.00000152,0.00000038,-0.00000045,0.00000
 364,-0.00000022,0.00000842,-0.00000534,0.00000210,-0.00004055,-0.00001
 475,-0.00001124,0.00010666,-0.00005501,-0.00001668,-0.00004828,0.00002
 620,0.00000766,-0.00017798,-0.00002350,0.00004023,0.00020244,0.0000934
 0,0.00008922,-0.00010896,-0.00005133,-0.00048487,-0.00006208,-0.000134
 97,0.00005387,0.00049025,0.00049613,-0.00037203,-0.00109748,0.00156945
 ,0.00798962,0.00000605,-0.00008854,0.00206747,-0.00000071,0.00000019,0
 .,0.00000009,-0.00000004,0.00000016,-0.00000005,0.00000033,0.00000008,
 -0.00000051,-0.00000015,-0.00000005,0.00000024,-0.00000045,0.00000039,
 -0.00000209,0.00000223,0.00000087,-0.00000402,-0.00000027,0.00000069,0
 .00000058,0.00000230,-0.00000519,-0.00000877,0.00001200,0.00000547,-0.
 00000753,-0.00005286,-0.00027846,-0.00001652,-0.00000211,0.00002996,0.
 00013612,-0.00021795,0.00027387,-0.00005002,0.00002666,0.00024279,-0.0
 1227118,0.01253794,-0.06757159,0.01665238,-0.04075062,-0.00193433,-0.0
 2146718,0.05164681,-0.02123405,0.01776177,-0.02501785,0.08110390\\-0.0
 0000063,0.00000339,-0.00000086,-0.00000034,0.00000292,-0.00000048,-0.0
 0000244,0.00000424,0.00000261,0.00000104,-0.00000169,-0.00000819,0.000
 00073,0.00000386,0.00000363,-0.00000118,-0.00000055,0.00000289,0.00000
 206,-0.00000077,0.00000472,-0.00000104,-0.00000197,-0.00000584,0.00000
 084,0.00000033,0.00000246,0.00000082,-0.00000136,-0.00000028,-0.000001
 65,-0.00000419,-0.00000064,0.00000031,-0.00000097,0.00000221,0.0000007
 7,-0.00000443,0.00000295,-0.00000098,0.00000390,-0.00000224,0.00000013
 ,0.00000501,-0.00000010,0.00000010,0.00000238,0.00000008,-0.00000129,0
 .00000329,-0.00000275,-0.00000107,0.00000149,-0.00000260,0.00000247,0.
 00000148,-0.00000060,-0.00000130,0.00000242,-0.00000077,-0.00000144,0.
 00000081,-0.00000310,-0.00000065,-0.00000002,-0.00000250,0.00000163,-0
 .00000063,0.00000314,-0.00000184,-0.00000184,-0.00000317,-0.00000087,-
 0.00000273,-0.00000188,0.00000332,-0.00000086,0.00000505,-0.00000113,-
 0.00000190,0.00000140,-0.00000092,-0.00000441,0.00000018,0.00000168,-0
 .00000156,0.00000482,0.00000285,-0.00000566,-0.00000013\\\@


 ON A TOMBSTONE, "HERE LIES LESTER MOORE,
 FOUR SLUGS FROM A 44, NO LES, NO MORE".
 Job cpu time:       0 days  2 hours 52 minutes 30.3 seconds.
 File lengths (MBytes):  RWF=    558 Int=      0 D2E=      0 Chk=     20 Scr=      1
 Normal termination of Gaussian 09 at Thu Nov  1 15:59:51 2018.
WARNING: pbs_rusage is deprecated and values produced may not be accurate


=============================================================================
                                     Resource usage:
                                       CPU time:              11:04:06
   JobId:    1921654.r-man2            Elapsed time:          02:48:13
   Project:             q95            Requested time:        36:00:00
   Service Units:     11.21 
                                       Max physical memory:      672MB
                                       Max virtual memory:      1549MB
                                       Requested memory:           0MB

                                       Number of cpus:               4

                                       Max jobfs disk use:       0.5GB
                                       Requested jobfs:         16.0GB
=============================================================================

