 Entering Gaussian System, Link 0=/apps/gaussian/g09e01/g09/g09
 AtFile(1): /home/507/hio507/Basis/6-31pGd.gbs
 Initial command:
 /apps/gaussian/g09e01/g09/l1.exe "/jobfs/local/1873087.r-man2/Gau-51325.inp" -scrdir="/jobfs/local/1873087.r-man2/"
 Entering Link 1 = /apps/gaussian/g09e01/g09/l1.exe PID=     51326.
  
 Copyright (c) 1988,1990,1992,1993,1995,1998,2003,2009,2015,
            Gaussian, Inc.  All Rights Reserved.
  
 This is part of the Gaussian(R) 09 program.  It is based on
 the Gaussian(R) 03 system (copyright 2003, Gaussian, Inc.),
 the Gaussian(R) 98 system (copyright 1998, Gaussian, Inc.),
 the Gaussian(R) 94 system (copyright 1995, Gaussian, Inc.),
 the Gaussian 92(TM) system (copyright 1992, Gaussian, Inc.),
 the Gaussian 90(TM) system (copyright 1990, Gaussian, Inc.),
 the Gaussian 88(TM) system (copyright 1988, Gaussian, Inc.),
 the Gaussian 86(TM) system (copyright 1986, Carnegie Mellon
 University), and the Gaussian 82(TM) system (copyright 1983,
 Carnegie Mellon University). Gaussian is a federally registered
 trademark of Gaussian, Inc.
  
 This software contains proprietary and confidential information,
 including trade secrets, belonging to Gaussian, Inc.
  
 This software is provided under written license and may be
 used, copied, transmitted, or stored only in accord with that
 written license.
  
 The following legend is applicable only to US Government
 contracts under FAR:
  
                    RESTRICTED RIGHTS LEGEND
  
 Use, reproduction and disclosure by the US Government is
 subject to restrictions as set forth in subparagraphs (a)
 and (c) of the Commercial Computer Software - Restricted
 Rights clause in FAR 52.227-19.
  
 Gaussian, Inc.
 340 Quinnipiac St., Bldg. 40, Wallingford CT 06492
  
  
 ---------------------------------------------------------------
 Warning -- This program may not be used in any manner that
 competes with the business of Gaussian, Inc. or will provide
 assistance to any competitor of Gaussian, Inc.  The licensee
 of this program is prohibited from giving any competitor of
 Gaussian, Inc. access to this program.  By using this program,
 the user acknowledges that Gaussian, Inc. is engaged in the
 business of creating and licensing software in the field of
 computational chemistry and represents and warrants to the
 licensee that it is not a competitor of Gaussian, Inc. and that
 it will not use this program in any manner prohibited above.
 ---------------------------------------------------------------
  

 Cite this work as:
 Gaussian 09, Revision E.01,
 M. J. Frisch, G. W. Trucks, H. B. Schlegel, G. E. Scuseria, 
 M. A. Robb, J. R. Cheeseman, G. Scalmani, V. Barone, B. Mennucci, 
 G. A. Petersson, H. Nakatsuji, M. Caricato, X. Li, H. P. Hratchian, 
 A. F. Izmaylov, J. Bloino, G. Zheng, J. L. Sonnenberg, M. Hada, 
 M. Ehara, K. Toyota, R. Fukuda, J. Hasegawa, M. Ishida, T. Nakajima, 
 Y. Honda, O. Kitao, H. Nakai, T. Vreven, J. A. Montgomery, Jr., 
 J. E. Peralta, F. Ogliaro, M. Bearpark, J. J. Heyd, E. Brothers, 
 K. N. Kudin, V. N. Staroverov, T. Keith, R. Kobayashi, J. Normand, 
 K. Raghavachari, A. Rendell, J. C. Burant, S. S. Iyengar, J. Tomasi, 
 M. Cossi, N. Rega, J. M. Millam, M. Klene, J. E. Knox, J. B. Cross, 
 V. Bakken, C. Adamo, J. Jaramillo, R. Gomperts, R. E. Stratmann, 
 O. Yazyev, A. J. Austin, R. Cammi, C. Pomelli, J. W. Ochterski, 
 R. L. Martin, K. Morokuma, V. G. Zakrzewski, G. A. Voth, 
 P. Salvador, J. J. Dannenberg, S. Dapprich, A. D. Daniels, 
 O. Farkas, J. B. Foresman, J. V. Ortiz, J. Cioslowski, 
 and D. J. Fox, Gaussian, Inc., Wallingford CT, 2013.
 
 ******************************************
 Gaussian 09:  ES64L-G09RevE.01 30-Nov-2015
                31-Oct-2018 
 ******************************************
 %chk=3Chloro4TFM_a1.M062X_6-31pGd_opt.chk
 %mem=196608000
 %nproc=4
 Will use up to    4 processors via shared memory.
 ----------------------------------------------------------------------
 # M062X/Gen 6D SCF=Tight INT(grid=ultrafine) OPT IOP(2/17=4) maxdisk=2
 147483648
 ----------------------------------------------------------------------
 1/14=-1,18=20,19=15,26=4,38=1/1,3;
 2/9=110,12=2,17=4,18=5,40=1/2;
 3/5=7,8=2,11=2,16=1,25=1,30=1,71=1,74=-55,75=-5/1,2,3;
 4//1;
 5/5=2,32=2,38=5/2;
 6/7=2,8=2,9=2,10=2,28=1/1;
 7//1,2,3,16;
 1/14=-1,18=20,19=15,26=4/3(2);
 2/9=110,17=4/2;
 99//99;
 2/9=110,17=4/2;
 3/5=7,6=1,8=2,11=2,16=1,25=1,30=1,71=1,74=-55,75=-5,82=7/1,2,3;
 4/5=5,16=3,69=1/1;
 5/5=2,32=2,38=5/2;
 7//1,2,3,16;
 1/14=-1,18=20,19=15,26=4/3(-5);
 2/9=110,17=4/2;
 6/7=2,8=2,9=2,10=2,19=2,28=1/1;
 99/9=1/99;
 --------------------------------
 3Chloro4TFM_a1.M062X_6-31pGd_opt
 --------------------------------
 Symbolic Z-matrix:
 Charge = -1 Multiplicity = 1
 C                    -1.91046   1.82273   0.16119 
 C                    -0.57072   1.28525  -0.33263 
 C                     0.58375   2.16601   0.12256 
 N                     1.85546   1.63088  -0.34523 
 C                     3.04213   2.24196   0.02056 
 O                     2.99697   3.44005   0.42037 
 N                     4.1222    1.44326  -0.08414 
 C                     5.3859    1.96193  -0.01372 
 C                     5.75285   3.30745  -0.28923 
 C                     6.44738   1.0701    0.28559 
 C                     7.76545   1.48468   0.32589 
 C                     8.11559   2.81528   0.06302 
 C                     7.07852   3.7008   -0.24978 
 H                    -2.73789   1.18888  -0.17195 
 H                    -2.08887   2.83565  -0.21704 
 H                    -1.9372    1.86336   1.25588 
 H                    -0.57026   1.22703  -1.42795 
 H                    -0.41782   0.26516   0.04317 
 H                     0.57382   2.2501    1.22 
 H                     0.45459   3.17677  -0.27753 
 H                     1.90951   0.61899  -0.39049 
 H                     4.99517   4.03474  -0.54852 
 H                     6.20515   0.03119   0.48894 
 H                     8.54421   0.76803   0.56682 
 Cl                    7.43241   5.38093  -0.61705 
 C                     9.54307   3.2456    0.11255 
 F                     9.99514   3.72928  -1.06815 
 F                     10.36619   2.23142   0.43912 
 F                     9.7743    4.22308   1.01955 
 

 GradGradGradGradGradGradGradGradGradGradGradGradGradGradGradGradGradGrad
 Berny optimization.
 Initialization pass.
                           ----------------------------
                           !    Initial Parameters    !
                           ! (Angstroms and Degrees)  !
 --------------------------                            --------------------------
 ! Name  Definition              Value          Derivative Info.                !
 --------------------------------------------------------------------------------
 ! R1    R(1,2)                  1.5257         estimate D2E/DX2                !
 ! R2    R(1,14)                 1.0943         estimate D2E/DX2                !
 ! R3    R(1,15)                 1.0958         estimate D2E/DX2                !
 ! R4    R(1,16)                 1.0958         estimate D2E/DX2                !
 ! R5    R(2,3)                  1.5217         estimate D2E/DX2                !
 ! R6    R(2,17)                 1.0969         estimate D2E/DX2                !
 ! R7    R(2,18)                 1.0978         estimate D2E/DX2                !
 ! R8    R(3,4)                  1.4569         estimate D2E/DX2                !
 ! R9    R(3,19)                 1.1007         estimate D2E/DX2                !
 ! R10   R(3,20)                 1.0947         estimate D2E/DX2                !
 ! R11   R(4,5)                  1.384          estimate D2E/DX2                !
 ! R12   R(4,21)                 1.0143         estimate D2E/DX2                !
 ! R13   R(5,6)                  1.2638         estimate D2E/DX2                !
 ! R14   R(5,7)                  1.3474         estimate D2E/DX2                !
 ! R15   R(7,8)                  1.3678         estimate D2E/DX2                !
 ! R16   R(8,9)                  1.4216         estimate D2E/DX2                !
 ! R17   R(8,10)                 1.4183         estimate D2E/DX2                !
 ! R18   R(9,13)                 1.3834         estimate D2E/DX2                !
 ! R19   R(9,22)                 1.0818         estimate D2E/DX2                !
 ! R20   R(10,11)                1.3823         estimate D2E/DX2                !
 ! R21   R(10,23)                1.086          estimate D2E/DX2                !
 ! R22   R(11,12)                1.4008         estimate D2E/DX2                !
 ! R23   R(11,24)                1.0854         estimate D2E/DX2                !
 ! R24   R(12,13)                1.3991         estimate D2E/DX2                !
 ! R25   R(12,26)                1.4918         estimate D2E/DX2                !
 ! R26   R(13,25)                1.7558         estimate D2E/DX2                !
 ! R27   R(26,27)                1.3536         estimate D2E/DX2                !
 ! R28   R(26,28)                1.3464         estimate D2E/DX2                !
 ! R29   R(26,29)                1.3534         estimate D2E/DX2                !
 ! A1    A(2,1,14)             111.186          estimate D2E/DX2                !
 ! A2    A(2,1,15)             110.9086         estimate D2E/DX2                !
 ! A3    A(2,1,16)             110.9679         estimate D2E/DX2                !
 ! A4    A(14,1,15)            107.8925         estimate D2E/DX2                !
 ! A5    A(14,1,16)            107.8889         estimate D2E/DX2                !
 ! A6    A(15,1,16)            107.8528         estimate D2E/DX2                !
 ! A7    A(1,2,3)              111.437          estimate D2E/DX2                !
 ! A8    A(1,2,17)             110.0165         estimate D2E/DX2                !
 ! A9    A(1,2,18)             109.8075         estimate D2E/DX2                !
 ! A10   A(3,2,17)             109.2136         estimate D2E/DX2                !
 ! A11   A(3,2,18)             109.2534         estimate D2E/DX2                !
 ! A12   A(17,2,18)            107.005          estimate D2E/DX2                !
 ! A13   A(2,3,4)              110.7074         estimate D2E/DX2                !
 ! A14   A(2,3,19)             109.6094         estimate D2E/DX2                !
 ! A15   A(2,3,20)             109.6069         estimate D2E/DX2                !
 ! A16   A(4,3,19)             110.8598         estimate D2E/DX2                !
 ! A17   A(4,3,20)             108.9528         estimate D2E/DX2                !
 ! A18   A(19,3,20)            107.0244         estimate D2E/DX2                !
 ! A19   A(3,4,5)              120.0935         estimate D2E/DX2                !
 ! A20   A(3,4,21)             115.2938         estimate D2E/DX2                !
 ! A21   A(5,4,21)             113.9901         estimate D2E/DX2                !
 ! A22   A(4,5,6)              118.1346         estimate D2E/DX2                !
 ! A23   A(4,5,7)              113.8944         estimate D2E/DX2                !
 ! A24   A(6,5,7)              127.9633         estimate D2E/DX2                !
 ! A25   A(5,7,8)              120.7845         estimate D2E/DX2                !
 ! A26   A(7,8,9)              125.9726         estimate D2E/DX2                !
 ! A27   A(7,8,10)             117.6365         estimate D2E/DX2                !
 ! A28   A(9,8,10)             116.2857         estimate D2E/DX2                !
 ! A29   A(8,9,13)             120.7277         estimate D2E/DX2                !
 ! A30   A(8,9,22)             120.1312         estimate D2E/DX2                !
 ! A31   A(13,9,22)            119.1343         estimate D2E/DX2                !
 ! A32   A(8,10,11)            122.0854         estimate D2E/DX2                !
 ! A33   A(8,10,23)            118.3017         estimate D2E/DX2                !
 ! A34   A(11,10,23)           119.6129         estimate D2E/DX2                !
 ! A35   A(10,11,12)           121.1817         estimate D2E/DX2                !
 ! A36   A(10,11,24)           119.5107         estimate D2E/DX2                !
 ! A37   A(12,11,24)           119.3076         estimate D2E/DX2                !
 ! A38   A(11,12,13)           117.2508         estimate D2E/DX2                !
 ! A39   A(11,12,26)           120.462          estimate D2E/DX2                !
 ! A40   A(13,12,26)           122.2862         estimate D2E/DX2                !
 ! A41   A(9,13,12)            122.4616         estimate D2E/DX2                !
 ! A42   A(9,13,25)            117.3398         estimate D2E/DX2                !
 ! A43   A(12,13,25)           120.1983         estimate D2E/DX2                !
 ! A44   A(12,26,27)           113.1839         estimate D2E/DX2                !
 ! A45   A(12,26,28)           112.0724         estimate D2E/DX2                !
 ! A46   A(12,26,29)           113.2096         estimate D2E/DX2                !
 ! A47   A(27,26,28)           106.054          estimate D2E/DX2                !
 ! A48   A(27,26,29)           105.63           estimate D2E/DX2                !
 ! A49   A(28,26,29)           106.0842         estimate D2E/DX2                !
 ! D1    D(14,1,2,3)           179.7564         estimate D2E/DX2                !
 ! D2    D(14,1,2,17)           58.4699         estimate D2E/DX2                !
 ! D3    D(14,1,2,18)          -59.0488         estimate D2E/DX2                !
 ! D4    D(15,1,2,3)            59.7032         estimate D2E/DX2                !
 ! D5    D(15,1,2,17)          -61.5833         estimate D2E/DX2                !
 ! D6    D(15,1,2,18)         -179.1021         estimate D2E/DX2                !
 ! D7    D(16,1,2,3)           -60.1553         estimate D2E/DX2                !
 ! D8    D(16,1,2,17)          178.5582         estimate D2E/DX2                !
 ! D9    D(16,1,2,18)           61.0395         estimate D2E/DX2                !
 ! D10   D(1,2,3,4)            179.3941         estimate D2E/DX2                !
 ! D11   D(1,2,3,19)            56.793          estimate D2E/DX2                !
 ! D12   D(1,2,3,20)           -60.3907         estimate D2E/DX2                !
 ! D13   D(17,2,3,4)           -58.8528         estimate D2E/DX2                !
 ! D14   D(17,2,3,19)          178.5461         estimate D2E/DX2                !
 ! D15   D(17,2,3,20)           61.3624         estimate D2E/DX2                !
 ! D16   D(18,2,3,4)            57.8768         estimate D2E/DX2                !
 ! D17   D(18,2,3,19)          -64.7242         estimate D2E/DX2                !
 ! D18   D(18,2,3,20)          178.092          estimate D2E/DX2                !
 ! D19   D(2,3,4,5)           -176.4948         estimate D2E/DX2                !
 ! D20   D(2,3,4,21)           -33.9702         estimate D2E/DX2                !
 ! D21   D(19,3,4,5)           -54.6247         estimate D2E/DX2                !
 ! D22   D(19,3,4,21)           87.9            estimate D2E/DX2                !
 ! D23   D(20,3,4,5)            62.9002         estimate D2E/DX2                !
 ! D24   D(20,3,4,21)         -154.5752         estimate D2E/DX2                !
 ! D25   D(3,4,5,6)            -19.9031         estimate D2E/DX2                !
 ! D26   D(3,4,5,7)            159.1644         estimate D2E/DX2                !
 ! D27   D(21,4,5,6)          -162.8825         estimate D2E/DX2                !
 ! D28   D(21,4,5,7)            16.185          estimate D2E/DX2                !
 ! D29   D(4,5,7,8)            167.1817         estimate D2E/DX2                !
 ! D30   D(6,5,7,8)            -13.8614         estimate D2E/DX2                !
 ! D31   D(5,7,8,9)            -23.0596         estimate D2E/DX2                !
 ! D32   D(5,7,8,10)           160.8222         estimate D2E/DX2                !
 ! D33   D(7,8,9,13)          -176.6803         estimate D2E/DX2                !
 ! D34   D(7,8,9,22)             2.3573         estimate D2E/DX2                !
 ! D35   D(10,8,9,13)           -0.5158         estimate D2E/DX2                !
 ! D36   D(10,8,9,22)          178.5219         estimate D2E/DX2                !
 ! D37   D(7,8,10,11)          177.3244         estimate D2E/DX2                !
 ! D38   D(7,8,10,23)           -2.7438         estimate D2E/DX2                !
 ! D39   D(9,8,10,11)            0.8277         estimate D2E/DX2                !
 ! D40   D(9,8,10,23)         -179.2404         estimate D2E/DX2                !
 ! D41   D(8,9,13,12)           -0.2613         estimate D2E/DX2                !
 ! D42   D(8,9,13,25)          179.538          estimate D2E/DX2                !
 ! D43   D(22,9,13,12)        -179.3084         estimate D2E/DX2                !
 ! D44   D(22,9,13,25)           0.4909         estimate D2E/DX2                !
 ! D45   D(8,10,11,12)          -0.3664         estimate D2E/DX2                !
 ! D46   D(8,10,11,24)         179.5418         estimate D2E/DX2                !
 ! D47   D(23,10,11,12)        179.7026         estimate D2E/DX2                !
 ! D48   D(23,10,11,24)         -0.3892         estimate D2E/DX2                !
 ! D49   D(10,11,12,13)         -0.4231         estimate D2E/DX2                !
 ! D50   D(10,11,12,26)        179.9266         estimate D2E/DX2                !
 ! D51   D(24,11,12,13)        179.6685         estimate D2E/DX2                !
 ! D52   D(24,11,12,26)          0.0182         estimate D2E/DX2                !
 ! D53   D(11,12,13,9)           0.7373         estimate D2E/DX2                !
 ! D54   D(11,12,13,25)       -179.0565         estimate D2E/DX2                !
 ! D55   D(26,12,13,9)        -179.6193         estimate D2E/DX2                !
 ! D56   D(26,12,13,25)          0.5869         estimate D2E/DX2                !
 ! D57   D(11,12,26,27)        119.2357         estimate D2E/DX2                !
 ! D58   D(11,12,26,28)         -0.6513         estimate D2E/DX2                !
 ! D59   D(11,12,26,29)       -120.596          estimate D2E/DX2                !
 ! D60   D(13,12,26,27)        -60.3965         estimate D2E/DX2                !
 ! D61   D(13,12,26,28)        179.7165         estimate D2E/DX2                !
 ! D62   D(13,12,26,29)         59.7718         estimate D2E/DX2                !
 --------------------------------------------------------------------------------
 Trust Radius=3.00D-01 FncErr=1.00D-07 GrdErr=1.00D-06
 Number of steps in this run=    150 maximum allowed number of steps=    174.
 GradGradGradGradGradGradGradGradGradGradGradGradGradGradGradGradGradGrad

                          Input orientation:                          
 ---------------------------------------------------------------------
 Center     Atomic      Atomic             Coordinates (Angstroms)
 Number     Number       Type             X           Y           Z
 ---------------------------------------------------------------------
      1          6           0       -1.910462    1.822735    0.161194
      2          6           0       -0.570722    1.285251   -0.332625
      3          6           0        0.583749    2.166006    0.122555
      4          7           0        1.855463    1.630879   -0.345234
      5          6           0        3.042126    2.241958    0.020557
      6          8           0        2.996975    3.440050    0.420367
      7          7           0        4.122201    1.443257   -0.084139
      8          6           0        5.385900    1.961929   -0.013718
      9          6           0        5.752851    3.307447   -0.289231
     10          6           0        6.447376    1.070101    0.285587
     11          6           0        7.765454    1.484682    0.325895
     12          6           0        8.115586    2.815279    0.063016
     13          6           0        7.078516    3.700799   -0.249780
     14          1           0       -2.737891    1.188882   -0.171953
     15          1           0       -2.088868    2.835648   -0.217038
     16          1           0       -1.937202    1.863355    1.255883
     17          1           0       -0.570255    1.227034   -1.427945
     18          1           0       -0.417821    0.265163    0.043172
     19          1           0        0.573817    2.250104    1.220004
     20          1           0        0.454587    3.176766   -0.277528
     21          1           0        1.909507    0.618994   -0.390487
     22          1           0        4.995166    4.034741   -0.548515
     23          1           0        6.205146    0.031188    0.488942
     24          1           0        8.544211    0.768033    0.566823
     25         17           0        7.432410    5.380934   -0.617052
     26          6           0        9.543072    3.245601    0.112551
     27          9           0        9.995140    3.729278   -1.068150
     28          9           0       10.366189    2.231419    0.439117
     29          9           0        9.774299    4.223085    1.019551
 ---------------------------------------------------------------------
                    Distance matrix (angstroms):
                    1          2          3          4          5
     1  C    0.000000
     2  C    1.525663   0.000000
     3  C    2.518018   1.521749   0.000000
     4  N    3.804664   2.450713   1.456862   0.000000
     5  C    4.972289   3.754024   2.461665   1.383976   0.000000
     6  O    5.173569   4.235400   2.745094   2.272067   1.263847
     7  N    6.049563   4.702153   3.617421   2.289426   1.347385
     8  C    7.299785   6.003411   4.808417   3.561387   2.360692
     9  C    7.818799   6.639182   5.309621   4.243071   2.929038
    10  C    8.392579   7.048558   5.967387   4.668840   3.610985
    11  C    9.683220   8.364523   7.216817   5.949771   4.793383
    12  C   10.075536   8.828900   7.560005   6.384247   5.105928
    13  C    9.192266   8.022006   6.684028   5.619071   4.300435
    14  H    1.094255   2.175252   3.474881   4.617823   5.878319
    15  H    1.095848   2.172984   2.776081   4.126215   5.170689
    16  H    1.095769   2.173667   2.780507   4.123340   5.144228
    17  H    2.162493   1.096866   2.148824   2.686906   4.022130
    18  H    2.160540   1.097808   2.150034   2.680273   3.984905
    19  H    2.734112   2.156750   1.100711   2.115662   2.744319
    20  H    2.760314   2.152236   1.094708   2.087296   2.767324
    21  H    4.042958   2.568810   2.100975   1.014337   2.021335
    22  H    7.285902   6.211716   4.837676   3.959496   2.711509
    23  H    8.317460   6.939743   6.024267   4.708991   3.887362
    24  H   10.515565   9.173796   8.094484   6.805564   5.722220
    25  Cl  10.027747   8.994756   7.601772   6.726004   5.434547
    26  C   11.541679  10.311643   9.024140   7.868686   6.578606
    27  F   12.119800  10.869761   9.614358   8.436837   7.193177
    28  F   12.286595  11.004855   9.787780   8.567865   7.336021
    29  F   11.959603  10.838760   9.460571   8.443348   7.088371
                    6          7          8          9         10
     6  O    0.000000
     7  N    2.346879   0.000000
     8  C    2.842575   1.367813   0.000000
     9  C    2.848854   2.485213   1.421612   0.000000
    10  C    4.188089   2.383774   1.418334   2.412157   0.000000
    11  C    5.154686   3.666488   2.450588   2.784138   1.382329
    12  C    5.168967   4.225071   2.860993   2.439021   2.424482
    13  C    4.144402   3.723403   2.438103   1.383355   2.757812
    14  H    6.189288   6.865368   8.162023   8.751844   9.197422
    15  H    5.161141   6.366616   7.528405   7.856231   8.731394
    16  H    5.246918   6.220009   7.432995   7.975569   8.477728
    17  H    4.586810   4.885869   6.165703   6.753256   7.225508
    18  H    4.677928   4.692112   6.046935   6.887901   6.916474
    19  H    2.815507   3.865594   4.976068   5.497104   6.063351
    20  H    2.649549   4.061262   5.085595   5.299889   6.377198
    21  H    3.130243   2.381024   3.745762   4.691410   4.610078
    22  H    2.298948   2.773716   2.176059   1.081791   3.404957
    23  H    4.681602   2.580895   2.156754   3.397645   1.085987
    24  H    6.158973   4.520381   3.425981   3.869514   2.137067
    25  Cl   4.951399   5.171728   4.030113   2.688444   4.513129
    26  C    6.556214   5.716027   4.352681   3.811958   3.787621
    27  F    7.160562   6.378524   5.047815   4.333782   4.635780
    28  F    7.467695   6.315249   5.008090   4.792829   4.090150
    29  F    6.848671   6.394668   5.043661   4.327048   4.642029
                   11         12         13         14         15
    11  C    0.000000
    12  C    1.400781   0.000000
    13  C    2.390494   1.399107   0.000000
    14  H   10.519297  10.977174  10.132997   0.000000
    15  H    9.961303  10.208317   9.208175   1.770623   0.000000
    16  H    9.754476  10.167971   9.323432   1.770518   1.771399
    17  H    8.522111   8.954850   8.124733   2.505517   2.521928
    18  H    8.278475   8.906319   8.251332   2.506443   3.076931
    19  H    7.287314   7.650903   6.824653   3.745818   3.081858
    20  H    7.528350   7.677080   6.644684   3.762279   2.566940
    21  H    5.962778   6.598845   6.019632   4.687306   4.575002
    22  H    3.865474   3.405595   2.130988   8.248690   7.192443
    23  H    2.138642   3.403286   3.843765   9.041844   8.783739
    24  H    1.085400   2.151454   3.378789  11.314094  10.860563
    25  Cl   4.022543   2.740768   1.755843  11.009379   9.863733
    26  C    2.511230   1.491759   2.532296  12.455243  11.643827
    27  F    3.457321   2.376478   3.029395  13.014870  12.146860
    28  F    2.708184   2.355325   3.666394  13.159681  12.486956
    29  F    3.466334   2.376595   3.025100  12.929848  12.007867
                   16         17         18         19         20
    16  H    0.000000
    17  H    3.078373   0.000000
    18  H    2.516626   1.764262   0.000000
    19  H    2.540881   3.060590   2.511627   0.000000
    20  H    3.130024   2.484998   3.056366   1.765084   0.000000
    21  H    4.365334   2.755949   2.393682   2.652974   2.944783
    22  H    7.485219   6.295279   6.622707   5.085363   4.628868
    23  H    8.381101   7.142168   6.642074   6.096712   6.599323
    24  H   10.560992   9.341481   8.991391   8.133287   8.482744
    25  Cl  10.181889   9.052905   9.393249   7.759972   7.325548
    26  C   11.619573  10.427230  10.397461   9.092029   9.097113
    27  F   12.298925  10.863620  11.030180   9.807391   9.589187
    28  F   12.335964  11.140041  10.968947   9.823476   9.982340
    29  F   11.949202  11.044291  10.977148   9.411785   9.467536
                   21         22         23         24         25
    21  H    0.000000
    22  H    4.605821   0.000000
    23  H    4.423960   4.309153   0.000000
    24  H    6.705069   4.950866   2.453616   0.000000
    25  Cl   7.295879   2.785155   5.599034   4.890452   0.000000
    26  C    8.088474   4.662960   4.649287   2.709691   3.089800
    27  F    8.689680   5.036175   5.519461   3.680665   3.082052
    28  F    8.648909   5.751111   4.707205   2.340386   4.431930
    29  F    8.765422   5.033331   5.531039   3.695329   3.082780
                   26         27         28         29
    26  C    0.000000
    27  F    1.353648   0.000000
    28  F    1.346378   2.157107   0.000000
    29  F    1.353362   2.156643   2.157306   0.000000
 Stoichiometry    C11H11ClF3N2O(1-)
 Framework group  C1[X(C11H11ClF3N2O)]
 Deg. of freedom    81
 Full point group                 C1      NOp   1
 Largest Abelian subgroup         C1      NOp   1
 Largest concise Abelian subgroup C1      NOp   1
                         Standard orientation:                         
 ---------------------------------------------------------------------
 Center     Atomic      Atomic             Coordinates (Angstroms)
 Number     Number       Type             X           Y           Z
 ---------------------------------------------------------------------
      1          6           0       -7.458569    0.370662    0.261870
      2          6           0       -6.241891   -0.312424   -0.355170
      3          6           0       -4.943981    0.253486    0.202412
      4          7           0       -3.793707   -0.419232   -0.386456
      5          6           0       -2.514214   -0.105504    0.037645
      6          8           0       -2.336224    0.996516    0.630251
      7          7           0       -1.601103   -1.059291   -0.230618
      8          6           0       -0.263100   -0.799735   -0.115320
      9          6           0        0.347092    0.482773   -0.177122
     10          6           0        0.614514   -1.907963   -0.000016
     11          6           0        1.986634   -1.754153    0.066778
     12          6           0        2.577533   -0.485139    0.015504
     13          6           0        1.722728    0.614772   -0.114899
     14          1           0       -8.389286   -0.036298   -0.145000
     15          1           0       -7.445992    1.447891    0.061115
     16          1           0       -7.477147    0.231671    1.348629
     17          1           0       -6.252394   -0.185569   -1.444626
     18          1           0       -6.280862   -1.391530   -0.157200
     19          1           0       -4.937976    0.153078    1.298518
     20          1           0       -4.883418    1.323278   -0.021777
     21          1           0       -3.928357   -1.401833   -0.599162
     22          1           0       -0.262529    1.369341   -0.289505
     23          1           0        0.183756   -2.904171    0.037175
     24          1           0        2.618934   -2.631190    0.162158
     25         17           0        2.382162    2.239197   -0.211730
     26          6           0        4.060082   -0.337635    0.090571
     27          9           0        4.593872    0.245887   -1.008034
     28          9           0        4.680779   -1.525364    0.220066
     29          9           0        4.468794    0.415219    1.138310
 ---------------------------------------------------------------------
 Rotational constants (GHZ):      1.1177117      0.1271004      0.1175987
 General basis read from cards:  (6D, 7F)
 There are   368 symmetry adapted cartesian basis functions of A   symmetry.
 There are   368 symmetry adapted basis functions of A   symmetry.
   368 basis functions,   644 primitive gaussians,   368 cartesian basis functions
    72 alpha electrons       72 beta electrons
       nuclear repulsion energy      1411.5654973786 Hartrees.
 NAtoms=   29 NActive=   29 NUniq=   29 SFac= 1.00D+00 NAtFMM=   60 NAOKFM=F Big=F
 Integral buffers will be    131072 words long.
 Raffenetti 2 integral format.
 Two-electron integral symmetry is turned on.
 One-electron integrals computed using PRISM.
 NBasis=   368 RedAO= T EigKep=  1.53D-06  NBF=   368
 NBsUse=   367 1.00D-06 EigRej=  5.68D-07 NBFU=   367
 ExpMin= 4.38D-02 ExpMax= 2.52D+04 ExpMxC= 3.78D+03 IAcc=3 IRadAn=         5 AccDes= 0.00D+00
 Harris functional with IExCor= 1009 and IRadAn=       5 diagonalized for initial guess.
 HarFok:  IExCor= 1009 AccDes= 0.00D+00 IRadAn=         5 IDoV= 1 UseB2=F ITyADJ=14
 ICtDFT=  3500011 ScaDFX=  1.000000  1.000000  1.000000  1.000000
 FoFCou: FMM=F IPFlag=           0 FMFlag=      100000 FMFlg1=           0
         NFxFlg=           0 DoJE=T BraDBF=F KetDBF=T FulRan=T
         wScrn=  0.000000 ICntrl=     500 IOpCl=  0 I1Cent=   200000004 NGrid=           0
         NMat0=    1 NMatS0=      1 NMatT0=    0 NMatD0=    1 NMtDS0=    0 NMtDT0=    0
 Petite list used in FoFCou.
 Requested convergence on RMS density matrix=1.00D-08 within 128 cycles.
 Requested convergence on MAX density matrix=1.00D-06.
 Requested convergence on             energy=1.00D-06.
 No special actions if energy rises.
 SCF Done:  E(RM062X) =  -1369.99561646     A.U. after   16 cycles
            NFock= 16  Conv=0.86D-08     -V/T= 2.0063

 **********************************************************************

            Population analysis using the SCF density.

 **********************************************************************

 Orbital symmetries:
       Occupied  (A) (A) (A) (A) (A) (A) (A) (A) (A) (A) (A) (A)
                 (A) (A) (A) (A) (A) (A) (A) (A) (A) (A) (A) (A)
                 (A) (A) (A) (A) (A) (A) (A) (A) (A) (A) (A) (A)
                 (A) (A) (A) (A) (A) (A) (A) (A) (A) (A) (A) (A)
                 (A) (A) (A) (A) (A) (A) (A) (A) (A) (A) (A) (A)
                 (A) (A) (A) (A) (A) (A) (A) (A) (A) (A) (A) (A)
       Virtual   (A) (A) (A) (A) (A) (A) (A) (A) (A) (A) (A) (A)
                 (A) (A) (A) (A) (A) (A) (A) (A) (A) (A) (A) (A)
                 (A) (A) (A) (A) (A) (A) (A) (A) (A) (A) (A) (A)
                 (A) (A) (A) (A) (A) (A) (A) (A) (A) (A) (A) (A)
                 (A) (A) (A) (A) (A) (A) (A) (A) (A) (A) (A) (A)
                 (A) (A) (A) (A) (A) (A) (A) (A) (A) (A) (A) (A)
                 (A) (A) (A) (A) (A) (A) (A) (A) (A) (A) (A) (A)
                 (A) (A) (A) (A) (A) (A) (A) (A) (A) (A) (A) (A)
                 (A) (A) (A) (A) (A) (A) (A) (A) (A) (A) (A) (A)
                 (A) (A) (A) (A) (A) (A) (A) (A) (A) (A) (A) (A)
                 (A) (A) (A) (A) (A) (A) (A) (A) (A) (A) (A) (A)
                 (A) (A) (A) (A) (A) (A) (A) (A) (A) (A) (A) (A)
                 (A) (A) (A) (A) (A) (A) (A) (A) (A) (A) (A) (A)
                 (A) (A) (A) (A) (A) (A) (A) (A) (A) (A) (A) (A)
                 (A) (A) (A) (A) (A) (A) (A) (A) (A) (A) (A) (A)
                 (A) (A) (A) (A) (A) (A) (A) (A) (A) (A) (A) (A)
                 (A) (A) (A) (A) (A) (A) (A) (A) (A) (A) (A) (A)
                 (A) (A) (A) (A) (A) (A) (A) (A) (A) (A) (A) (A)
                 (A) (A) (A) (A) (A) (A) (A) (A) (A) (A) (A) (A)
                 (A) (A) (A) (A) (A) (A) (A) (A) (A) (A) (A) (A)
                 (A) (A) (A) (A) (A) (A) (A) (A) (A) (A) (A) (A)
                 (A) (A) (A) (A) (A) (A) (A) (A) (A) (A) (A) (A)
                 (A) (A) (A) (A) (A) (A) (A) (A) (A) (A) (A) (A)
                 (A) (A) (A) (A) (A) (A) (A) (A) (A) (A) (A) (A)
                 (A) (A) (A) (A) (A) (A) (A)
 The electronic state is 1-A.
 Alpha  occ. eigenvalues -- -102.55382 -25.19274 -25.18175 -25.18157 -19.44567
 Alpha  occ. eigenvalues --  -14.63722 -14.57469 -10.69530 -10.50941 -10.49874
 Alpha  occ. eigenvalues --  -10.46533 -10.46144 -10.46142 -10.45852 -10.44807
 Alpha  occ. eigenvalues --  -10.44586 -10.42030 -10.42018  -9.70052  -7.42445
 Alpha  occ. eigenvalues --   -7.41806  -7.41787  -1.35113  -1.26112  -1.25254
 Alpha  occ. eigenvalues --   -0.99454  -0.88422  -0.88183  -0.84798  -0.80704
 Alpha  occ. eigenvalues --   -0.78746  -0.74510  -0.70696  -0.68354  -0.66154
 Alpha  occ. eigenvalues --   -0.60118  -0.58699  -0.57885  -0.57316  -0.55731
 Alpha  occ. eigenvalues --   -0.52814  -0.50729  -0.46820  -0.45852  -0.45800
 Alpha  occ. eigenvalues --   -0.45081  -0.43027  -0.42197  -0.41433  -0.40872
 Alpha  occ. eigenvalues --   -0.40473  -0.39561  -0.39039  -0.38119  -0.37314
 Alpha  occ. eigenvalues --   -0.36649  -0.34807  -0.34526  -0.33454  -0.32758
 Alpha  occ. eigenvalues --   -0.31734  -0.30653  -0.30047  -0.28712  -0.28017
 Alpha  occ. eigenvalues --   -0.26164  -0.23035  -0.19691  -0.17916  -0.17596
 Alpha  occ. eigenvalues --   -0.15446  -0.10601
 Alpha virt. eigenvalues --    0.09548   0.11085   0.11587   0.12340   0.12907
 Alpha virt. eigenvalues --    0.13315   0.13400   0.13952   0.14036   0.15049
 Alpha virt. eigenvalues --    0.15317   0.15722   0.16043   0.16198   0.16868
 Alpha virt. eigenvalues --    0.17316   0.17812   0.18452   0.18689   0.19088
 Alpha virt. eigenvalues --    0.19943   0.20276   0.21547   0.21805   0.22044
 Alpha virt. eigenvalues --    0.22930   0.23674   0.24122   0.24399   0.24745
 Alpha virt. eigenvalues --    0.25553   0.26019   0.26575   0.26995   0.27499
 Alpha virt. eigenvalues --    0.28373   0.28844   0.29917   0.30015   0.30272
 Alpha virt. eigenvalues --    0.31014   0.31535   0.31919   0.32343   0.32712
 Alpha virt. eigenvalues --    0.32994   0.33339   0.33696   0.34147   0.34486
 Alpha virt. eigenvalues --    0.34579   0.35308   0.35818   0.36421   0.37070
 Alpha virt. eigenvalues --    0.37822   0.38037   0.38397   0.39063   0.39209
 Alpha virt. eigenvalues --    0.39804   0.40212   0.40578   0.40883   0.41536
 Alpha virt. eigenvalues --    0.42089   0.42278   0.42540   0.43009   0.43540
 Alpha virt. eigenvalues --    0.43916   0.44487   0.45315   0.45445   0.45846
 Alpha virt. eigenvalues --    0.46069   0.47036   0.47604   0.48260   0.48655
 Alpha virt. eigenvalues --    0.48970   0.49478   0.50412   0.50805   0.51026
 Alpha virt. eigenvalues --    0.51714   0.51867   0.53247   0.53780   0.54874
 Alpha virt. eigenvalues --    0.55108   0.56622   0.56864   0.57849   0.58421
 Alpha virt. eigenvalues --    0.59271   0.59609   0.61257   0.63776   0.64982
 Alpha virt. eigenvalues --    0.66124   0.71361   0.72605   0.74770   0.77402
 Alpha virt. eigenvalues --    0.78173   0.78869   0.81531   0.82231   0.83371
 Alpha virt. eigenvalues --    0.84381   0.85243   0.85467   0.87396   0.87627
 Alpha virt. eigenvalues --    0.87986   0.89416   0.90040   0.90231   0.91792
 Alpha virt. eigenvalues --    0.93747   0.94977   0.96320   0.96756   0.97530
 Alpha virt. eigenvalues --    0.97773   0.98591   1.00113   1.00982   1.02309
 Alpha virt. eigenvalues --    1.03484   1.03945   1.06915   1.07920   1.09267
 Alpha virt. eigenvalues --    1.09665   1.10128   1.11516   1.12117   1.13148
 Alpha virt. eigenvalues --    1.14837   1.15916   1.17172   1.17673   1.18329
 Alpha virt. eigenvalues --    1.19282   1.20371   1.21192   1.21618   1.24402
 Alpha virt. eigenvalues --    1.24930   1.25614   1.26697   1.27740   1.28046
 Alpha virt. eigenvalues --    1.28915   1.30629   1.32775   1.34136   1.34528
 Alpha virt. eigenvalues --    1.36947   1.38184   1.39289   1.42316   1.43764
 Alpha virt. eigenvalues --    1.44706   1.45666   1.48153   1.50229   1.52606
 Alpha virt. eigenvalues --    1.53828   1.55791   1.57430   1.59017   1.59997
 Alpha virt. eigenvalues --    1.60173   1.61224   1.63067   1.63884   1.65495
 Alpha virt. eigenvalues --    1.67887   1.68471   1.70358   1.72220   1.74119
 Alpha virt. eigenvalues --    1.76813   1.79403   1.79656   1.80868   1.80957
 Alpha virt. eigenvalues --    1.83700   1.84708   1.85577   1.86137   1.86883
 Alpha virt. eigenvalues --    1.87085   1.88501   1.90227   1.91594   1.95089
 Alpha virt. eigenvalues --    1.96361   1.97487   1.99852   2.00340   2.01157
 Alpha virt. eigenvalues --    2.01523   2.03130   2.03753   2.04052   2.05427
 Alpha virt. eigenvalues --    2.06033   2.07487   2.08394   2.11544   2.12507
 Alpha virt. eigenvalues --    2.12979   2.13913   2.14682   2.16164   2.19047
 Alpha virt. eigenvalues --    2.19506   2.21217   2.21708   2.22661   2.24533
 Alpha virt. eigenvalues --    2.24777   2.25904   2.26118   2.27287   2.27719
 Alpha virt. eigenvalues --    2.29859   2.30569   2.30949   2.32712   2.34890
 Alpha virt. eigenvalues --    2.38322   2.40343   2.40836   2.42743   2.43226
 Alpha virt. eigenvalues --    2.44473   2.47136   2.47989   2.49323   2.52401
 Alpha virt. eigenvalues --    2.54385   2.58760   2.61952   2.62675   2.65328
 Alpha virt. eigenvalues --    2.69883   2.72693   2.74442   2.74749   2.77303
 Alpha virt. eigenvalues --    2.78893   2.81961   2.82814   2.88664   2.89772
 Alpha virt. eigenvalues --    2.91182   2.92645   2.93776   2.97215   2.99485
 Alpha virt. eigenvalues --    3.02548   3.08257   3.12105   3.14584   3.24382
 Alpha virt. eigenvalues --    3.27114   3.30929   3.36727   3.38854   3.44045
 Alpha virt. eigenvalues --    3.50880   3.55194   4.29830   4.36472   4.40145
 Alpha virt. eigenvalues --    4.44518   4.50441   4.51819   4.54007   4.54939
 Alpha virt. eigenvalues --    4.58753   4.61095   4.63646   4.68609   4.73743
 Alpha virt. eigenvalues --    4.80501   4.94223   5.70684   6.17184   7.09847
          Condensed to atoms (all electrons):
               1          2          3          4          5          6
     1  C    5.699651  -0.098065  -0.007860   0.008117  -0.048557   0.002389
     2  C   -0.098065   6.440535  -0.610229  -0.044016   0.096195   0.018182
     3  C   -0.007860  -0.610229   7.092337   0.252605  -0.264260  -0.066495
     4  N    0.008117  -0.044016   0.252605   7.984733   0.039207  -0.237695
     5  C   -0.048557   0.096195  -0.264260   0.039207   8.029423   0.526087
     6  O    0.002389   0.018182  -0.066495  -0.237695   0.526087   8.567819
     7  N    0.007081  -0.031747   0.021402  -0.524263   0.189347  -0.118631
     8  C   -0.020691   0.032203  -0.505661  -0.148825  -0.726584  -0.246315
     9  C    0.007715  -0.003094   0.114542   0.175190   1.668327   0.326734
    10  C   -0.011667   0.008735  -0.317974  -0.136887  -2.999784  -0.137221
    11  C    0.000317  -0.003558   0.049104  -0.030722   0.894486   0.024037
    12  C   -0.000677   0.002875  -0.069487   0.009126  -0.915159  -0.017422
    13  C   -0.000369   0.003850  -0.046681   0.059542  -0.797858   0.018717
    14  H    0.416692  -0.097131   0.032920   0.000709  -0.001766   0.000005
    15  H    0.419200  -0.054144  -0.015371   0.000152  -0.001728  -0.000088
    16  H    0.421145  -0.062368  -0.010185   0.000060  -0.000754  -0.000018
    17  H   -0.036375   0.412824  -0.059559   0.001825  -0.001923   0.000028
    18  H   -0.040702   0.450882  -0.088881   0.004884  -0.011253  -0.000430
    19  H    0.015021  -0.135318   0.504558  -0.122039   0.010575   0.008192
    20  H   -0.014964   0.004251   0.373408  -0.016700  -0.014556  -0.005248
    21  H    0.004355   0.017127  -0.094915   0.256813   0.047041   0.010434
    22  H    0.000008  -0.000201   0.001861   0.000062   0.031577  -0.009792
    23  H    0.000002   0.000013  -0.000557  -0.000392  -0.017984   0.000076
    24  H   -0.000000  -0.000000   0.000012   0.000006   0.002082  -0.000002
    25  Cl   0.000005   0.000005   0.000312   0.001189  -0.008305  -0.001445
    26  C   -0.000042   0.000321  -0.008607   0.006183  -0.324199  -0.001559
    27  F   -0.000000  -0.000000  -0.000005   0.000001  -0.000290  -0.000002
    28  F   -0.000000   0.000000  -0.000002  -0.000001  -0.000110  -0.000003
    29  F   -0.000000   0.000000   0.000000   0.000003  -0.000010   0.000005
               7          8          9         10         11         12
     1  C    0.007081  -0.020691   0.007715  -0.011667   0.000317  -0.000677
     2  C   -0.031747   0.032203  -0.003094   0.008735  -0.003558   0.002875
     3  C    0.021402  -0.505661   0.114542  -0.317974   0.049104  -0.069487
     4  N   -0.524263  -0.148825   0.175190  -0.136887  -0.030722   0.009126
     5  C    0.189347  -0.726584   1.668327  -2.999784   0.894486  -0.915159
     6  O   -0.118631  -0.246315   0.326734  -0.137221   0.024037  -0.017422
     7  N    7.625226   0.680392  -0.342229  -0.053296   0.091705  -0.003853
     8  C    0.680392  15.511821   1.118816  -5.182776   2.319732  -3.004317
     9  C   -0.342229   1.118816  15.675385  -9.979187   3.724553  -0.863691
    10  C   -0.053296  -5.182776  -9.979187  22.762598  -4.819946   1.452993
    11  C    0.091705   2.319732   3.724553  -4.819946  16.183083  -0.886121
    12  C   -0.003853  -3.004317  -0.863691   1.452993  -0.886121  18.990217
    13  C   -0.055175  -1.932295  -4.082230   3.370433  -8.936092  -5.234493
    14  H    0.000010  -0.000051  -0.000007   0.000000   0.000000  -0.000000
    15  H   -0.000036   0.000009  -0.000076   0.000018   0.000001  -0.000000
    16  H    0.000058  -0.000012   0.000031  -0.000020  -0.000000   0.000000
    17  H    0.001293  -0.000584   0.000581  -0.000423  -0.000007  -0.000002
    18  H   -0.002510  -0.001957  -0.000671   0.000549   0.000035  -0.000002
    19  H    0.016774  -0.001902  -0.001789  -0.002737   0.000192  -0.000296
    20  H   -0.011686  -0.001801   0.004388   0.000326  -0.000136   0.000180
    21  H    0.013697   0.002075   0.014281  -0.022921  -0.001602   0.000151
    22  H   -0.002605  -0.154844   0.371324   0.008127   0.000695   0.123590
    23  H   -0.010786   0.101430   0.046319   0.279735  -0.119505   0.026847
    24  H    0.000469  -0.006344  -0.009735  -0.012301   0.356862   0.004330
    25  Cl   0.001484  -0.067520   0.000236   0.047932   0.069761  -0.059702
    26  C    0.005683  -1.796139  -1.790888   1.913019  -2.639818  -2.388290
    27  F   -0.000050   0.004982  -0.005216  -0.000278   0.043790   0.305617
    28  F   -0.000021   0.009175  -0.009040   0.076805   0.054539  -0.048761
    29  F   -0.000045  -0.000666  -0.003882   0.009539  -0.020421   0.220076
              13         14         15         16         17         18
     1  C   -0.000369   0.416692   0.419200   0.421145  -0.036375  -0.040702
     2  C    0.003850  -0.097131  -0.054144  -0.062368   0.412824   0.450882
     3  C   -0.046681   0.032920  -0.015371  -0.010185  -0.059559  -0.088881
     4  N    0.059542   0.000709   0.000152   0.000060   0.001825   0.004884
     5  C   -0.797858  -0.001766  -0.001728  -0.000754  -0.001923  -0.011253
     6  O    0.018717   0.000005  -0.000088  -0.000018   0.000028  -0.000430
     7  N   -0.055175   0.000010  -0.000036   0.000058   0.001293  -0.002510
     8  C   -1.932295  -0.000051   0.000009  -0.000012  -0.000584  -0.001957
     9  C   -4.082230  -0.000007  -0.000076   0.000031   0.000581  -0.000671
    10  C    3.370433   0.000000   0.000018  -0.000020  -0.000423   0.000549
    11  C   -8.936092   0.000000   0.000001  -0.000000  -0.000007   0.000035
    12  C   -5.234493  -0.000000  -0.000000   0.000000  -0.000002  -0.000002
    13  C   22.173002  -0.000000  -0.000003   0.000002   0.000017  -0.000017
    14  H   -0.000000   0.518808  -0.027696  -0.028040  -0.002876  -0.003014
    15  H   -0.000003  -0.027696   0.503132  -0.030903  -0.004789   0.004250
    16  H    0.000002  -0.028040  -0.030903   0.504160   0.003992  -0.004782
    17  H    0.000017  -0.002876  -0.004789   0.003992   0.509485  -0.037512
    18  H   -0.000017  -0.003014   0.004250  -0.004782  -0.037512   0.537202
    19  H   -0.000609  -0.000062  -0.000511   0.002617   0.004626  -0.006822
    20  H    0.000728  -0.000085   0.002772  -0.000229  -0.006203   0.004451
    21  H    0.000066  -0.000002  -0.000000   0.000003  -0.000202   0.002234
    22  H   -0.073592  -0.000000   0.000000   0.000000  -0.000000  -0.000000
    23  H   -0.009552  -0.000000  -0.000000   0.000000   0.000000  -0.000000
    24  H   -0.028671  -0.000000   0.000000   0.000000   0.000000   0.000000
    25  Cl  -0.334498   0.000000  -0.000000   0.000000   0.000000  -0.000000
    26  C    1.822575  -0.000000   0.000000  -0.000000  -0.000000   0.000000
    27  F   -0.265174  -0.000000   0.000000  -0.000000  -0.000000   0.000000
    28  F   -0.123563  -0.000000  -0.000000   0.000000  -0.000000  -0.000000
    29  F   -0.217248  -0.000000   0.000000  -0.000000  -0.000000   0.000000
              19         20         21         22         23         24
     1  C    0.015021  -0.014964   0.004355   0.000008   0.000002  -0.000000
     2  C   -0.135318   0.004251   0.017127  -0.000201   0.000013  -0.000000
     3  C    0.504558   0.373408  -0.094915   0.001861  -0.000557   0.000012
     4  N   -0.122039  -0.016700   0.256813   0.000062  -0.000392   0.000006
     5  C    0.010575  -0.014556   0.047041   0.031577  -0.017984   0.002082
     6  O    0.008192  -0.005248   0.010434  -0.009792   0.000076  -0.000002
     7  N    0.016774  -0.011686   0.013697  -0.002605  -0.010786   0.000469
     8  C   -0.001902  -0.001801   0.002075  -0.154844   0.101430  -0.006344
     9  C   -0.001789   0.004388   0.014281   0.371324   0.046319  -0.009735
    10  C   -0.002737   0.000326  -0.022921   0.008127   0.279735  -0.012301
    11  C    0.000192  -0.000136  -0.001602   0.000695  -0.119505   0.356862
    12  C   -0.000296   0.000180   0.000151   0.123590   0.026847   0.004330
    13  C   -0.000609   0.000728   0.000066  -0.073592  -0.009552  -0.028671
    14  H   -0.000062  -0.000085  -0.000002  -0.000000  -0.000000  -0.000000
    15  H   -0.000511   0.002772  -0.000000   0.000000  -0.000000   0.000000
    16  H    0.002617  -0.000229   0.000003   0.000000   0.000000   0.000000
    17  H    0.004626  -0.006203  -0.000202  -0.000000   0.000000   0.000000
    18  H   -0.006822   0.004451   0.002234  -0.000000  -0.000000   0.000000
    19  H    0.558924  -0.043730   0.001297  -0.000001   0.000000  -0.000000
    20  H   -0.043730   0.504900   0.003091  -0.000001  -0.000000   0.000000
    21  H    0.001297   0.003091   0.365570   0.000001   0.000008  -0.000000
    22  H   -0.000001  -0.000001   0.000001   0.441218  -0.000115   0.000011
    23  H    0.000000  -0.000000   0.000008  -0.000115   0.512830  -0.003952
    24  H   -0.000000   0.000000  -0.000000   0.000011  -0.003952   0.504634
    25  Cl  -0.000002   0.000003  -0.000004   0.004884   0.000302   0.000189
    26  C   -0.000014   0.000011   0.000004   0.005469   0.006104  -0.017083
    27  F   -0.000000   0.000000  -0.000000  -0.000000   0.000008  -0.000231
    28  F   -0.000000   0.000000   0.000000   0.000019   0.000053   0.006721
    29  F   -0.000000   0.000000  -0.000000  -0.000010   0.000008  -0.000183
              25         26         27         28         29
     1  C    0.000005  -0.000042  -0.000000  -0.000000  -0.000000
     2  C    0.000005   0.000321  -0.000000   0.000000   0.000000
     3  C    0.000312  -0.008607  -0.000005  -0.000002   0.000000
     4  N    0.001189   0.006183   0.000001  -0.000001   0.000003
     5  C   -0.008305  -0.324199  -0.000290  -0.000110  -0.000010
     6  O   -0.001445  -0.001559  -0.000002  -0.000003   0.000005
     7  N    0.001484   0.005683  -0.000050  -0.000021  -0.000045
     8  C   -0.067520  -1.796139   0.004982   0.009175  -0.000666
     9  C    0.000236  -1.790888  -0.005216  -0.009040  -0.003882
    10  C    0.047932   1.913019  -0.000278   0.076805   0.009539
    11  C    0.069761  -2.639818   0.043790   0.054539  -0.020421
    12  C   -0.059702  -2.388290   0.305617  -0.048761   0.220076
    13  C   -0.334498   1.822575  -0.265174  -0.123563  -0.217248
    14  H    0.000000  -0.000000  -0.000000  -0.000000  -0.000000
    15  H   -0.000000   0.000000   0.000000  -0.000000   0.000000
    16  H    0.000000  -0.000000  -0.000000   0.000000  -0.000000
    17  H    0.000000  -0.000000  -0.000000  -0.000000  -0.000000
    18  H   -0.000000   0.000000   0.000000  -0.000000   0.000000
    19  H   -0.000002  -0.000014  -0.000000  -0.000000  -0.000000
    20  H    0.000003   0.000011   0.000000   0.000000   0.000000
    21  H   -0.000004   0.000004  -0.000000   0.000000  -0.000000
    22  H    0.004884   0.005469  -0.000000   0.000019  -0.000010
    23  H    0.000302   0.006104   0.000008   0.000053   0.000008
    24  H    0.000189  -0.017083  -0.000231   0.006721  -0.000183
    25  Cl  17.153317   0.034501  -0.006034   0.002858  -0.008135
    26  C    0.034501   9.436840   0.029872   0.129281   0.123313
    27  F   -0.006034   0.029872   9.291929  -0.046610  -0.064659
    28  F    0.002858   0.129281  -0.046610   9.352342  -0.046140
    29  F   -0.008135   0.123313  -0.064659  -0.046140   9.290496
 Mulliken charges:
               1
     1  C   -0.721727
     2  C   -0.348126
     3  C   -0.276331
     4  N   -0.538865
     5  C    0.600733
     6  O   -0.660339
     7  N   -0.497687
     8  C    0.018648
     9  C   -0.156687
    10  C   -0.253392
    11  C   -0.354960
    12  C   -1.643730
    13  C    0.689187
    14  H    0.191585
    15  H    0.205813
    16  H    0.205245
    17  H    0.215783
    18  H    0.194067
    19  H    0.193054
    20  H    0.216827
    21  H    0.381400
    22  H    0.252315
    23  H    0.189108
    24  H    0.203186
    25  Cl   0.168666
    26  C    1.453461
    27  F   -0.287651
    28  F   -0.357542
    29  F   -0.282041
 Sum of Mulliken charges =  -1.00000
 Mulliken charges with hydrogens summed into heavy atoms:
               1
     1  C   -0.119084
     2  C    0.061724
     3  C    0.133550
     4  N   -0.157465
     5  C    0.600733
     6  O   -0.660339
     7  N   -0.497687
     8  C    0.018648
     9  C    0.095628
    10  C   -0.064284
    11  C   -0.151774
    12  C   -1.643730
    13  C    0.689187
    25  Cl   0.168666
    26  C    1.453461
    27  F   -0.287651
    28  F   -0.357542
    29  F   -0.282041
 Electronic spatial extent (au):  <R**2>=           8614.0527
 Charge=             -1.0000 electrons
 Dipole moment (field-independent basis, Debye):
    X=             -1.4499    Y=             -1.7341    Z=             -0.5924  Tot=              2.3367
 Quadrupole moment (field-independent basis, Debye-Ang):
   XX=           -156.4226   YY=           -121.7706   ZZ=           -120.9123
   XY=              1.0650   XZ=              1.5408   YZ=             -2.9483
 Traceless Quadrupole moment (field-independent basis, Debye-Ang):
   XX=            -23.3874   YY=             11.2646   ZZ=             12.1229
   XY=              1.0650   XZ=              1.5408   YZ=             -2.9483
 Octapole moment (field-independent basis, Debye-Ang**2):
  XXX=              5.3964  YYY=              0.6007  ZZZ=              4.3898  XYY=             27.9709
  XXY=            -17.7107  XXZ=             -4.1210  XZZ=             27.7234  YZZ=              3.1975
  YYZ=             -0.8649  XYZ=              7.0474
 Hexadecapole moment (field-independent basis, Debye-Ang**3):
 XXXX=         -10823.6571 YYYY=          -1051.7224 ZZZZ=           -268.2319 XXXY=             87.4621
 XXXZ=             33.2992 YYYX=            -10.7333 YYYZ=             -7.5332 ZZZX=              1.8346
 ZZZY=             -4.6403 XXYY=          -1849.5933 XXZZ=          -1740.9179 YYZZ=           -234.8413
 XXYZ=            -17.1721 YYXZ=             13.7932 ZZXY=             -0.2207
 N-N= 1.411565497379D+03 E-N=-6.067406941481D+03  KE= 1.361451659911D+03
 Calling FoFJK, ICntrl=      2127 FMM=F ISym2X=0 I1Cent= 0 IOpClX= 0 NMat=1 NMatS=1 NMatT=0.
 ***** Axes restored to original set *****
 -------------------------------------------------------------------
 Center     Atomic                   Forces (Hartrees/Bohr)
 Number     Number              X              Y              Z
 -------------------------------------------------------------------
      1        6          -0.001116500   -0.001340328   -0.000192360
      2        6           0.000522453    0.001184243   -0.000270407
      3        6           0.007787517   -0.001728202   -0.001774962
      4        7          -0.015953893   -0.007796208   -0.002636131
      5        6           0.012606926    0.033097593    0.010625894
      6        8          -0.003229161   -0.018836733   -0.007778139
      7        7           0.009138028   -0.003438883   -0.000037086
      8        6          -0.016191018   -0.005769800   -0.001021105
      9        6           0.004181465    0.004746053   -0.001073679
     10        6           0.004979424   -0.001786359    0.000469423
     11        6          -0.003355272   -0.000532074   -0.000328728
     12        6           0.006154098    0.000487786    0.000598029
     13        6          -0.005630222   -0.002774542   -0.000036632
     14        1          -0.001127689   -0.000045381    0.000050893
     15        1           0.000233345    0.000042661    0.000274042
     16        1           0.000003479    0.000400473   -0.000003987
     17        1           0.000482336   -0.000388392   -0.000235321
     18        1          -0.000693146   -0.001051856    0.000049837
     19        1          -0.000400686    0.001309219    0.001155827
     20        1           0.001661691    0.000738852    0.000746424
     21        1           0.002679600    0.001396019    0.000168156
     22        1          -0.001793419   -0.000677001    0.002033898
     23        1          -0.001877908    0.000509411   -0.000292716
     24        1           0.000647645    0.000389266    0.000021623
     25       17           0.000731434    0.001850385   -0.000541210
     26        6          -0.008743815    0.002265044   -0.001048959
     27        9           0.002343956    0.000297216   -0.000761415
     28        9           0.003825173   -0.003111452    0.001045485
     29        9           0.002134159    0.000562991    0.000793307
 -------------------------------------------------------------------
 Cartesian Forces:  Max     0.033097593 RMS     0.005767228

 GradGradGradGradGradGradGradGradGradGradGradGradGradGradGradGradGradGrad
 Berny optimization.
 FormGI is forming the generalized inverse of G from B-inverse, IUseBI=4.
 Internal  Forces:  Max     0.020201738 RMS     0.002765007
 Search for a local minimum.
 Step number   1 out of a maximum of  150
 All quantities printed in internal units (Hartrees-Bohrs-Radians)
 Mixed Optimization -- RFO/linear search
 Second derivative matrix not updated -- first step.
 ITU=  0
     Eigenvalues ---    0.00426   0.00478   0.00875   0.00940   0.01581
     Eigenvalues ---    0.01855   0.01904   0.01956   0.02032   0.02065
     Eigenvalues ---    0.02079   0.02091   0.02118   0.02148   0.02161
     Eigenvalues ---    0.02215   0.02221   0.02388   0.03725   0.04428
     Eigenvalues ---    0.04931   0.05545   0.05575   0.05585   0.08171
     Eigenvalues ---    0.09184   0.10458   0.10644   0.12070   0.12690
     Eigenvalues ---    0.14162   0.15998   0.16000   0.16000   0.16000
     Eigenvalues ---    0.16000   0.16000   0.21896   0.21914   0.22364
     Eigenvalues ---    0.22539   0.23465   0.24612   0.24939   0.24998
     Eigenvalues ---    0.24999   0.25000   0.25000   0.25000   0.25000
     Eigenvalues ---    0.25000   0.25000   0.29828   0.29929   0.30199
     Eigenvalues ---    0.33258   0.33604   0.33926   0.34031   0.34146
     Eigenvalues ---    0.34154   0.34274   0.34325   0.35281   0.35350
     Eigenvalues ---    0.35779   0.37360   0.40133   0.41039   0.44324
     Eigenvalues ---    0.44663   0.45254   0.46841   0.48383   0.48590
     Eigenvalues ---    0.51399   0.54252   0.54312   0.55581   0.55799
     Eigenvalues ---    0.78323
 RFO step:  Lambda=-3.97171502D-03 EMin= 4.26474313D-03
 Linear search not attempted -- first point.
 Iteration  1 RMS(Cart)=  0.10177581 RMS(Int)=  0.00462830
 Iteration  2 RMS(Cart)=  0.00805784 RMS(Int)=  0.00005239
 Iteration  3 RMS(Cart)=  0.00004756 RMS(Int)=  0.00005040
 Iteration  4 RMS(Cart)=  0.00000000 RMS(Int)=  0.00005040
 Variable       Old X    -DE/DX   Delta X   Delta X   Delta X     New X
                                 (Linear)    (Quad)   (Total)
    R1        2.88309   0.00147   0.00000   0.00488   0.00488   2.88796
    R2        2.06784   0.00086   0.00000   0.00248   0.00248   2.07033
    R3        2.07085  -0.00009   0.00000  -0.00026  -0.00026   2.07059
    R4        2.07070   0.00001   0.00000   0.00003   0.00003   2.07073
    R5        2.87569   0.00207   0.00000   0.00678   0.00678   2.88247
    R6        2.07278   0.00025   0.00000   0.00074   0.00074   2.07352
    R7        2.07456   0.00090   0.00000   0.00262   0.00262   2.07717
    R8        2.75307  -0.00680   0.00000  -0.01801  -0.01801   2.73506
    R9        2.08004   0.00125   0.00000   0.00369   0.00369   2.08373
   R10        2.06870   0.00022   0.00000   0.00062   0.00062   2.06932
   R11        2.61534   0.00899   0.00000   0.01843   0.01843   2.63377
   R12        1.91682  -0.00126   0.00000  -0.00275  -0.00275   1.91407
   R13        2.38833  -0.02020   0.00000  -0.02566  -0.02566   2.36266
   R14        2.54619   0.00139   0.00000   0.00249   0.00249   2.54868
   R15        2.58479  -0.01299   0.00000  -0.02508  -0.02508   2.55971
   R16        2.68646   0.00268   0.00000   0.00632   0.00633   2.69278
   R17        2.68026   0.00180   0.00000   0.00410   0.00409   2.68435
   R18        2.61416  -0.00125   0.00000  -0.00246  -0.00245   2.61171
   R19        2.04429   0.00031   0.00000   0.00086   0.00086   2.04515
   R20        2.61222  -0.00072   0.00000  -0.00155  -0.00157   2.61066
   R21        2.05222  -0.00012   0.00000  -0.00034  -0.00034   2.05188
   R22        2.64709   0.00138   0.00000   0.00298   0.00297   2.65006
   R23        2.05111   0.00021   0.00000   0.00060   0.00060   2.05171
   R24        2.64393   0.00345   0.00000   0.00754   0.00755   2.65148
   R25        2.81902  -0.00042   0.00000  -0.00124  -0.00124   2.81778
   R26        3.31806   0.00203   0.00000   0.00669   0.00669   3.32476
   R27        2.55802   0.00155   0.00000   0.00284   0.00284   2.56087
   R28        2.54429   0.00494   0.00000   0.00879   0.00879   2.55307
   R29        2.55748   0.00130   0.00000   0.00238   0.00238   2.55986
    A1        1.94056   0.00118   0.00000   0.00900   0.00900   1.94956
    A2        1.93572  -0.00040   0.00000  -0.00361  -0.00362   1.93210
    A3        1.93675   0.00000   0.00000  -0.00062  -0.00064   1.93612
    A4        1.88308  -0.00026   0.00000  -0.00036  -0.00036   1.88272
    A5        1.88302  -0.00036   0.00000  -0.00000  -0.00002   1.88300
    A6        1.88239  -0.00020   0.00000  -0.00469  -0.00470   1.87768
    A7        1.94494   0.00160   0.00000   0.00869   0.00868   1.95363
    A8        1.92015  -0.00005   0.00000   0.00120   0.00120   1.92135
    A9        1.91650  -0.00104   0.00000  -0.00635  -0.00638   1.91013
   A10        1.90614  -0.00083   0.00000  -0.00403  -0.00404   1.90210
   A11        1.90683   0.00020   0.00000   0.00464   0.00465   1.91148
   A12        1.86759   0.00006   0.00000  -0.00467  -0.00468   1.86292
   A13        1.93221  -0.00062   0.00000  -0.00099  -0.00102   1.93119
   A14        1.91304   0.00032   0.00000   0.00703   0.00698   1.92003
   A15        1.91300   0.00144   0.00000   0.00852   0.00850   1.92150
   A16        1.93487   0.00088   0.00000   0.00971   0.00968   1.94455
   A17        1.90159  -0.00120   0.00000  -0.01478  -0.01475   1.88683
   A18        1.86793  -0.00082   0.00000  -0.00984  -0.00984   1.85809
   A19        2.09603  -0.00404   0.00000  -0.01833  -0.01833   2.07770
   A20        2.01226   0.00400   0.00000   0.02209   0.02203   2.03428
   A21        1.98950  -0.00051   0.00000  -0.00931  -0.00925   1.98025
   A22        2.06184  -0.00107   0.00000  -0.00427  -0.00430   2.05754
   A23        1.98783  -0.00771   0.00000  -0.03041  -0.03044   1.95739
   A24        2.23338   0.00877   0.00000   0.03447   0.03443   2.26781
   A25        2.10809  -0.00348   0.00000  -0.01369  -0.01369   2.09440
   A26        2.19864   0.00048   0.00000   0.00210   0.00209   2.20073
   A27        2.05314   0.00004   0.00000   0.00035   0.00033   2.05348
   A28        2.02957  -0.00050   0.00000  -0.00204  -0.00204   2.02753
   A29        2.10710  -0.00006   0.00000  -0.00003  -0.00012   2.10698
   A30        2.09668  -0.00194   0.00000  -0.01181  -0.01195   2.08474
   A31        2.07929   0.00201   0.00000   0.01226   0.01212   2.09140
   A32        2.13079   0.00007   0.00000  -0.00015  -0.00017   2.13062
   A33        2.06475  -0.00205   0.00000  -0.01221  -0.01221   2.05254
   A34        2.08764   0.00198   0.00000   0.01237   0.01237   2.10000
   A35        2.11502   0.00124   0.00000   0.00517   0.00515   2.12017
   A36        2.08585   0.00012   0.00000   0.00194   0.00195   2.08780
   A37        2.08231  -0.00136   0.00000  -0.00711  -0.00710   2.07521
   A38        2.04641  -0.00168   0.00000  -0.00665  -0.00665   2.03977
   A39        2.10246  -0.00057   0.00000  -0.00222  -0.00223   2.10023
   A40        2.13430   0.00225   0.00000   0.00890   0.00889   2.14319
   A41        2.13736   0.00094   0.00000   0.00389   0.00391   2.14127
   A42        2.04797   0.00005   0.00000   0.00012   0.00010   2.04807
   A43        2.09786  -0.00099   0.00000  -0.00399  -0.00400   2.09385
   A44        1.97543   0.00248   0.00000   0.01070   0.01064   1.98607
   A45        1.95603   0.00030   0.00000  -0.00097  -0.00096   1.95508
   A46        1.97588   0.00260   0.00000   0.01146   0.01140   1.98728
   A47        1.85099  -0.00208   0.00000  -0.01039  -0.01038   1.84061
   A48        1.84359  -0.00192   0.00000  -0.00377  -0.00388   1.83971
   A49        1.85152  -0.00201   0.00000  -0.00955  -0.00954   1.84198
    D1        3.13734  -0.00026   0.00000  -0.00246  -0.00245   3.13489
    D2        1.02049  -0.00023   0.00000  -0.00396  -0.00397   1.01652
    D3       -1.03060   0.00035   0.00000   0.00482   0.00480  -1.02580
    D4        1.04202  -0.00044   0.00000  -0.00558  -0.00556   1.03646
    D5       -1.07483  -0.00042   0.00000  -0.00708  -0.00708  -1.08191
    D6       -3.12592   0.00016   0.00000   0.00170   0.00169  -3.12423
    D7       -1.04991   0.00008   0.00000   0.00313   0.00314  -1.04677
    D8        3.11643   0.00010   0.00000   0.00162   0.00162   3.11805
    D9        1.06534   0.00068   0.00000   0.01040   0.01039   1.07573
   D10        3.13102   0.00052   0.00000   0.01776   0.01778  -3.13438
   D11        0.99123  -0.00040   0.00000   0.00143   0.00144   0.99267
   D12       -1.05402  -0.00043   0.00000   0.00427   0.00428  -1.04974
   D13       -1.02718   0.00094   0.00000   0.02221   0.02222  -1.00495
   D14        3.11622   0.00002   0.00000   0.00589   0.00588   3.12210
   D15        1.07098  -0.00001   0.00000   0.00873   0.00872   1.07969
   D16        1.01014   0.00065   0.00000   0.01694   0.01694   1.02708
   D17       -1.12965  -0.00027   0.00000   0.00062   0.00060  -1.12905
   D18        3.10829  -0.00030   0.00000   0.00346   0.00343   3.11173
   D19       -3.08042   0.00020   0.00000  -0.01889  -0.01883  -3.09925
   D20       -0.59289  -0.00070   0.00000  -0.03021  -0.03026  -0.62315
   D21       -0.95338   0.00078   0.00000  -0.00402  -0.00395  -0.95733
   D22        1.53414  -0.00011   0.00000  -0.01534  -0.01537   1.51877
   D23        1.09781  -0.00043   0.00000  -0.01933  -0.01929   1.07853
   D24       -2.69785  -0.00132   0.00000  -0.03064  -0.03072  -2.72856
   D25       -0.34738   0.00048   0.00000   0.00550   0.00550  -0.34188
   D26        2.77794   0.00020   0.00000  -0.00732  -0.00715   2.77079
   D27       -2.84284  -0.00024   0.00000   0.00563   0.00547  -2.83737
   D28        0.28248  -0.00052   0.00000  -0.00718  -0.00719   0.27529
   D29        2.91787   0.00225   0.00000   0.08010   0.08024   2.99811
   D30       -0.24193   0.00180   0.00000   0.06523   0.06509  -0.17683
   D31       -0.40247   0.00361   0.00000   0.14399   0.14398  -0.25848
   D32        2.80688   0.00344   0.00000   0.13655   0.13656   2.94343
   D33       -3.08365   0.00015   0.00000   0.00745   0.00748  -3.07618
   D34        0.04114   0.00088   0.00000   0.03679   0.03663   0.07777
   D35       -0.00900   0.00034   0.00000   0.01488   0.01488   0.00588
   D36        3.11579   0.00107   0.00000   0.04422   0.04404  -3.12336
   D37        3.09489  -0.00013   0.00000  -0.00766  -0.00772   3.08718
   D38       -0.04789   0.00003   0.00000  -0.00041  -0.00048  -0.04837
   D39        0.01445  -0.00032   0.00000  -0.01453  -0.01455  -0.00011
   D40       -3.12834  -0.00016   0.00000  -0.00728  -0.00732  -3.13566
   D41       -0.00456  -0.00015   0.00000  -0.00589  -0.00587  -0.01043
   D42        3.13353  -0.00005   0.00000  -0.00126  -0.00119   3.13234
   D43       -3.12952  -0.00084   0.00000  -0.03471  -0.03490   3.11876
   D44        0.00857  -0.00074   0.00000  -0.03008  -0.03023  -0.02166
   D45       -0.00639   0.00011   0.00000   0.00487   0.00490  -0.00150
   D46        3.13360   0.00010   0.00000   0.00445   0.00448   3.13808
   D47        3.13640  -0.00005   0.00000  -0.00245  -0.00251   3.13389
   D48       -0.00679  -0.00006   0.00000  -0.00288  -0.00293  -0.00972
   D49       -0.00739   0.00010   0.00000   0.00487   0.00487  -0.00251
   D50        3.14031   0.00000   0.00000  -0.00036  -0.00034   3.13997
   D51        3.13581   0.00011   0.00000   0.00529   0.00528   3.14108
   D52        0.00032   0.00001   0.00000   0.00006   0.00006   0.00038
   D53        0.01287  -0.00008   0.00000  -0.00434  -0.00436   0.00850
   D54       -3.12513  -0.00018   0.00000  -0.00911  -0.00916  -3.13429
   D55       -3.13495   0.00001   0.00000   0.00095   0.00095  -3.13400
   D56        0.01024  -0.00009   0.00000  -0.00382  -0.00385   0.00639
   D57        2.08106  -0.00060   0.00000  -0.00231  -0.00234   2.07872
   D58       -0.01137   0.00012   0.00000   0.00428   0.00429  -0.00707
   D59       -2.10480   0.00065   0.00000   0.00922   0.00928  -2.09551
   D60       -1.05412  -0.00069   0.00000  -0.00776  -0.00782  -1.06193
   D61        3.13664   0.00003   0.00000  -0.00117  -0.00118   3.13546
   D62        1.04321   0.00056   0.00000   0.00378   0.00381   1.04702
         Item               Value     Threshold  Converged?
 Maximum Force            0.020202     0.000450     NO 
 RMS     Force            0.002765     0.000300     NO 
 Maximum Displacement     0.461614     0.001800     NO 
 RMS     Displacement     0.106132     0.001200     NO 
 Predicted change in Energy=-2.122849D-03
 GradGradGradGradGradGradGradGradGradGradGradGradGradGradGradGradGradGrad

                          Input orientation:                          
 ---------------------------------------------------------------------
 Center     Atomic      Atomic             Coordinates (Angstroms)
 Number     Number       Type             X           Y           Z
 ---------------------------------------------------------------------
      1          6           0       -1.901493    1.841343    0.152956
      2          6           0       -0.557668    1.245837   -0.265423
      3          6           0        0.606203    2.171451    0.074129
      4          7           0        1.862488    1.585566   -0.342102
      5          6           0        3.048889    2.264095   -0.069088
      6          8           0        2.979431    3.488117    0.176091
      7          7           0        4.118793    1.443034   -0.081898
      8          6           0        5.368950    1.958320   -0.002088
      9          6           0        5.728131    3.323556   -0.196071
     10          6           0        6.440887    1.055162    0.228282
     11          6           0        7.757354    1.472606    0.262864
     12          6           0        8.104400    2.817478    0.069288
     13          6           0        7.052741    3.716562   -0.163853
     14          1           0       -2.735152    1.176561   -0.098742
     15          1           0       -2.073034    2.800433   -0.348343
     16          1           0       -1.929973    2.022718    1.233248
     17          1           0       -0.552957    1.047645   -1.344623
     18          1           0       -0.414912    0.277562    0.234866
     19          1           0        0.605613    2.398095    1.153248
     20          1           0        0.488955    3.128951   -0.444091
     21          1           0        1.943981    0.579739   -0.254929
     22          1           0        4.951936    4.059962   -0.358821
     23          1           0        6.193925    0.007837    0.373517
     24          1           0        8.545365    0.748382    0.445392
     25         17           0        7.396523    5.421637   -0.428371
     26          6           0        9.533584    3.240358    0.113927
     27          9           0        9.977473    3.790042   -1.042466
     28          9           0       10.361675    2.201629    0.360057
     29          9           0        9.804411    4.155922    1.074861
 ---------------------------------------------------------------------
                    Distance matrix (angstroms):
                    1          2          3          4          5
     1  C    0.000000
     2  C    1.528244   0.000000
     3  C    2.530557   1.525336   0.000000
     4  N    3.805004   2.445088   1.447330   0.000000
     5  C    4.973359   3.752686   2.448635   1.393731   0.000000
     6  O    5.151293   4.211155   2.715920   2.266228   1.250267
     7  N    6.038017   4.684214   3.590714   2.275727   1.348703
     8  C    7.273036   5.975097   4.768123   3.542574   2.341083
     9  C    7.780099   6.620649   5.256853   4.240888   2.883907
    10  C    8.379681   7.018539   5.942509   4.644180   3.613253
    11  C    9.666507   8.334873   7.187696   5.926904   4.786051
    12  C   10.053742   8.809853   7.525977   6.375603   5.087590
    13  C    9.153968   8.002071   6.633390   5.613524   4.260220
    14  H    1.095570   2.184952   3.490607   4.622208   5.885469
    15  H    1.095710   2.172551   2.784315   4.118772   5.157494
    16  H    1.095783   2.175495   2.792466   4.129842   5.152030
    17  H    2.165929   1.097258   2.149290   2.669978   4.009992
    18  H    2.159176   1.099192   2.157620   2.688925   4.004575
    19  H    2.756109   2.166460   1.102663   2.115659   2.735263
    20  H    2.780043   2.161818   1.095037   2.068582   2.727979
    21  H    4.067638   2.588831   2.105107   1.012880   2.022971
    22  H    7.221750   6.187387   4.758079   3.958233   2.632617
    23  H    8.303383   6.893831   5.999458   4.665049   3.895876
    24  H   10.507946   9.144285   8.074235   6.780993   5.724799
    25  Cl   9.980458   8.985155   7.544844   6.734124   5.385264
    26  C   11.520405  10.293463   8.991234   7.860789   6.560324
    27  F   12.096954  10.865817   9.575350   8.438199   7.161093
    28  F   12.270207  10.978927   9.759709   8.550365   7.325634
    29  F   11.968098  10.846089   9.462908   8.466916   7.108073
                    6          7          8          9         10
     6  O    0.000000
     7  N    2.355222   0.000000
     8  C    2.842855   1.354541   0.000000
     9  C    2.778657   2.477774   1.424959   0.000000
    10  C    4.231273   2.374611   1.420498   2.415307   0.000000
    11  C    5.186363   3.654977   2.451651   2.784669   1.381499
    12  C    5.169765   4.218651   2.868089   2.444010   2.428644
    13  C    4.093850   3.712640   2.439823   1.382058   2.758838
    14  H    6.170518   6.859144   8.142294   8.731908   9.182667
    15  H    5.125949   6.344466   7.497478   7.820168   8.710071
    16  H    5.231370   6.217172   7.403005   7.898209   8.486309
    17  H    4.554804   4.855518   6.140090   6.778717   7.168538
    18  H    4.672546   4.691817   6.027782   6.870281   6.899760
    19  H    2.788906   3.844498   4.921137   5.377484   6.058833
    20  H    2.591544   4.018610   5.037866   5.248652   6.338626
    21  H    3.117146   2.346279   3.700652   4.674589   4.547712
    22  H    2.122242   2.760276   2.172109   1.082248   3.404481
    23  H    4.741761   2.563858   2.150825   3.396379   1.085806
    24  H    6.209532   4.511664   3.428382   3.870375   2.137774
    25  Cl   4.859482   5.166511   4.035756   2.690620   4.517802
    26  C    6.559128   5.708649   4.359043   3.818965   3.788526
    27  F    7.109756   6.383985   5.067157   4.357855   4.647775
    28  F    7.495760   6.304313   5.011752   4.799764   4.087093
    29  F    6.916220   6.405006   5.065826   4.350191   4.652387
                   11         12         13         14         15
    11  C    0.000000
    12  C    1.402353   0.000000
    13  C    2.390377   1.403101   0.000000
    14  H   10.502908  10.964339  10.112304   0.000000
    15  H    9.938472  10.186014   9.173501   1.771344   0.000000
    16  H    9.751337  10.132872   9.247171   1.771579   1.768258
    17  H    8.475015   8.948814   8.146409   2.516111   2.524970
    18  H    8.259228   8.891415   8.231132   2.510579   3.074797
    19  H    7.266135   7.588324   6.711079   3.770986   3.097063
    20  H    7.488183   7.639082   6.595992   3.784964   2.584740
    21  H    5.904289   6.562267   5.995614   4.719627   4.590928
    22  H    3.866688   3.415417   2.137597   8.214193   7.136997
    23  H    2.145252   3.411240   3.844603   9.017614   8.755700
    24  H    1.085716   2.148736   3.377750  11.301747  10.843954
    25  Cl   4.025276   2.744157   1.759385  10.990003   9.825967
    26  C    2.510403   1.491103   2.541360  12.442924  11.624148
    27  F    3.464582   2.385431   3.054736  13.012753  12.110981
    28  F    2.706180   2.357776   3.676758  13.144890  12.469258
    29  F    3.471306   2.385927   3.049449  12.941970  12.038961
                   16         17         18         19         20
    16  H    0.000000
    17  H    3.080968   0.000000
    18  H    2.517488   1.762631   0.000000
    19  H    2.564470   3.066816   2.526174   0.000000
    20  H    3.144588   2.495670   3.067307   1.760469   0.000000
    21  H    4.393675   2.764248   2.428083   2.660942   2.941320
    22  H    7.351580   6.352142   6.592577   4.892717   4.559852
    23  H    8.414072   7.039433   6.615792   6.127850   6.554122
    24  H   10.581936   9.277563   8.975108   8.140165   8.447724
    25  Cl  10.064649   9.119515   9.376561   7.599986   7.278128
    26  C   11.582257  10.424666  10.381009   9.027639   9.062511
    27  F   12.251106  10.885862  11.044037   9.725762   9.530324
    28  F   12.323924  11.107061  10.947718   9.790225   9.948728
    29  F   11.927759  11.081082  10.962748   9.365575   9.494189
                   21         22         23         24         25
    21  H    0.000000
    22  H    4.601145   0.000000
    23  H    4.334056   4.300997   0.000000
    24  H    6.640570   4.952379   2.466342   0.000000
    25  Cl   7.294126   2.799107   5.603436   4.891075   0.000000
    26  C    8.050902   4.678327   4.655094   2.701183   3.101466
    27  F    8.686959   5.079001   5.534015   3.676460   3.114565
    28  F    8.594551   5.765021   4.709889   2.327701   4.447718
    29  F    8.737493   5.060748   5.543835   3.686836   3.108001
                   26         27         28         29
    26  C    0.000000
    27  F    1.355152   0.000000
    28  F    1.351027   2.153541   0.000000
    29  F    1.354621   2.155665   2.154240   0.000000
 Stoichiometry    C11H11ClF3N2O(1-)
 Framework group  C1[X(C11H11ClF3N2O)]
 Deg. of freedom    81
 Full point group                 C1      NOp   1
 Largest Abelian subgroup         C1      NOp   1
 Largest concise Abelian subgroup C1      NOp   1
                         Standard orientation:                         
 ---------------------------------------------------------------------
 Center     Atomic      Atomic             Coordinates (Angstroms)
 Number     Number       Type             X           Y           Z
 ---------------------------------------------------------------------
      1          6           0       -7.439590    0.393786    0.272589
      2          6           0       -6.232425   -0.384191   -0.249938
      3          6           0       -4.914763    0.264546    0.161837
      4          7           0       -3.791811   -0.488218   -0.354968
      5          6           0       -2.498330   -0.076755   -0.038595
      6          8           0       -2.337647    1.101006    0.348996
      7          7           0       -1.599693   -1.072906   -0.176931
      8          6           0       -0.275097   -0.809363   -0.073144
      9          6           0        0.330257    0.479864   -0.117267
     10          6           0        0.611796   -1.915027    0.020361
     11          6           0        1.983087   -1.753731    0.066004
     12          6           0        2.572738   -0.482191    0.020261
     13          6           0        1.704996    0.616102   -0.077041
     14          1           0       -8.383791   -0.071618   -0.030988
     15          1           0       -7.433075    1.420943   -0.108839
     16          1           0       -7.427161    0.446995    1.367009
     17          1           0       -6.271327   -0.449571   -1.344556
     18          1           0       -6.268937   -1.414900    0.130233
     19          1           0       -4.866526    0.356939    1.259563
     20          1           0       -4.855301    1.282196   -0.238110
     21          1           0       -3.898064   -1.494982   -0.387580
[...]
 01215,0.00004634,0.06666211,0.34227335,-0.00000103,-0.00000066,0.00000
 004,0.00001362,-0.00000557,0.00000545,-0.00001297,-0.00000539,0.000090
 76,-0.00007741,-0.00001100,0.00005123,0.00006275,-0.00021338,-0.001017
 07,0.00002125,-0.00006421,0.00031329,0.00039441,-0.00077017,-0.0028071
 1,0.00166854,0.00449490,0.00433836,-0.00087595,0.00123157,0.00450603,0
 .00955193,0.04951541,-0.04245330,-0.00013166,0.00040431,0.00149613,0.0
 0001931,0.00073379,0.00681467,-0.00034049,-0.00015591,-0.00036488,-0.0
 0000200,-0.00000088,-0.00000100,0.00000138,-0.00000058,0.00000105,0.00
 000386,-0.00000036,-0.00000484,-0.00000481,0.00000231,-0.00001062,-0.0
 0000361,-0.00000350,0.00000380,-0.00000538,0.00000809,-0.00002019,0.00
 000607,0.00000390,-0.00000001,-0.00000696,0.00000485,0.00006006,0.0001
 3293,0.00008823,-0.00073667,-0.01064462,-0.05444249,0.03386119,-0.0000
 0812,-0.00001088,-0.00000914,-0.00001587,0.00002438,0.00001709,0.00005
 597,-0.00007596,-0.00002845,-0.00033031,0.00003660,-0.00002840,0.00005
 305,-0.00030694,0.00005807,-0.00009250,0.00017336,-0.00002749,-0.00132
 200,0.00092109,-0.00018576,-0.00275392,-0.00352249,0.00036217,-0.00039
 094,-0.00073210,0.00014422,-0.01673115,0.02210678,-0.00439615,-0.21025
 555,0.14181132,-0.02916744,0.00839952,-0.00443733,0.00089920,0.0004623
 9,-0.00143040,0.00015847,-0.00001216,-0.00000033,-0.00000208,0.0000020
 4,0.00000137,0.00000087,0.00000054,0.00000146,0.00000320,0.00000316,0.
 00000171,-0.00000128,-0.00000141,-0.00000723,0.00000133,-0.00002494,0.
 00000584,0.00002110,0.00001048,0.00000829,-0.00000139,0.00002218,0.000
 02535,0.00001163,0.00002420,0.00009651,-0.00000578,0.00093661,-0.00050
 121,0.00022849,0.22529165,0.00000223,0.00000359,0.00000314,0.00000184,
 -0.00000582,-0.00000616,-0.00005738,0.00001803,-0.00000076,0.00013734,
 0.00007813,0.00005420,-0.00052413,0.00017053,-0.00015515,0.00009674,-0
 .00011535,0.00003514,0.00036441,0.00023359,-0.00007475,-0.00269691,0.0
 0015806,0.00140559,-0.00054303,0.00010016,-0.00018574,-0.00805935,0.01
 045275,-0.00125414,0.13945184,-0.18733488,0.02989471,0.02244756,-0.015
 40203,0.00385145,-0.00322168,-0.00307701,0.00130959,0.00000669,0.00000
 133,0.00000169,-0.00000119,-0.00000146,-0.00000051,0.00000010,-0.00000
 093,-0.00000265,-0.00000184,-0.00000102,-0.00000011,0.00000081,0.00000
 324,0.00000025,0.00001855,-0.00000481,-0.00001630,-0.00000662,-0.00000
 313,0.00000053,-0.00000250,-0.00000922,-0.00000775,0.00006930,0.000045
 54,-0.00008988,0.00032393,0.00058197,-0.00099064,-0.15053872,0.1957293
 1,-0.00000047,-0.00000018,0.00000010,0.00000576,-0.00000342,0.00000200
 ,0.00000797,-0.00000031,0.00004156,-0.00003692,-0.00000720,0.00001254,
 0.00011189,-0.00011376,-0.00056027,-0.00002375,0.00002611,0.00008343,-
 0.00006917,-0.00004563,-0.00016420,0.00019668,0.00139772,0.00823705,0.
 00009299,-0.00019987,-0.00084909,0.00094876,-0.00058001,0.00450939,-0.
 02875627,0.02990017,-0.04293352,-0.00387510,0.00328433,0.00271278,0.00
 049855,0.00135083,0.00451078,-0.00000152,-0.00000084,-0.00000082,0.000
 00058,0.00000018,0.00000063,0.00000143,0.00000014,-0.00000185,-0.00000
 135,0.00000054,-0.00000353,-0.00000063,-0.00000104,0.00000070,-0.00000
 644,0.00000280,-0.00000468,0.00000333,0.00000151,0.00000162,-0.0000023
 9,0.00000105,0.00001213,-0.00000398,-0.00009285,-0.00045536,0.00008870
 ,-0.00099643,-0.00486548,0.03131777,-0.03359921,0.03267425,-0.00001188
 ,-0.00002118,-0.00001561,-0.00001744,0.00002742,0.00003208,0.00017193,
 -0.00009905,-0.00004142,-0.00054134,-0.00008030,-0.00006326,0.00118147
 ,-0.00008327,0.00002763,-0.00039052,0.00020026,-0.00002193,-0.00056852
 ,-0.00217029,0.00041374,-0.00388926,0.00403429,-0.00094533,-0.00619722
 ,-0.03533115,0.00603474,0.00163403,-0.00066521,0.00017359,-0.00355252,
 -0.00063569,-0.00005132,0.00870851,0.01539025,-0.00260708,-0.04390783,
 -0.01883582,0.00287974,-0.00002774,-0.00000351,-0.00000560,0.00000398,
 0.00000882,0.00000100,0.00000081,0.00000273,0.00000837,0.00000591,0.00
 000224,-0.00000292,-0.00000251,-0.00000812,-0.00000100,-0.00005418,0.0
 0001112,0.00004965,0.00001856,0.00002055,-0.00000264,0.00006884,0.0000
 5402,0.00000996,0.00109331,-0.00146522,0.00036129,0.00018928,-0.000175
 73,0.00004925,0.00023911,0.00068578,-0.00013106,0.05114899,-0.00003629
 ,-0.00007748,-0.00004207,-0.00006224,0.00008364,0.00010399,0.00059871,
 -0.00037195,-0.00007103,-0.00183832,-0.00018510,-0.00032229,0.00432674
 ,-0.00203716,0.00049864,-0.00127734,0.00188910,-0.00027333,-0.00403579
 ,-0.00259544,0.00027498,-0.00115361,0.00876684,-0.00037247,-0.01236756
 ,-0.03439551,0.00671916,0.00106750,-0.00133008,0.00009924,0.00607746,-
 0.00169028,0.00110703,-0.00942891,-0.03382548,0.00635580,-0.01689500,-
 0.14554118,0.02083874,-0.00008270,-0.00000675,-0.00001455,0.00000623,0
 .00003904,-0.00000126,0.00000090,0.00000736,0.00002372,0.00002155,-0.0
 0000010,-0.00000746,-0.00000155,-0.00000585,-0.00000836,-0.00020171,0.
 00004020,0.00017273,0.00004285,0.00005943,-0.00001611,0.00020508,0.000
 13998,0.00004269,0.00123797,0.00113150,-0.00083143,-0.00005092,-0.0002
 8742,-0.00005849,-0.00080067,-0.00190880,0.00042339,0.03499447,0.21332
 874,0.00000715,0.00001462,0.00000662,0.00001206,-0.00001376,-0.0000220
 1,-0.00009725,0.00006810,0.00003055,0.00031251,0.00006471,0.00005997,-
 0.00074167,0.00038313,0.00010104,0.00023429,-0.00029641,0.00016817,0.0
 0071779,0.00024530,-0.00098657,-0.00003210,-0.00027601,0.00679398,0.00
 197532,0.00618601,0.00386374,-0.00012691,0.00005003,-0.00095257,-0.001
 26514,0.00093719,0.00345306,0.00183037,0.00692102,0.00193246,0.0024968
 6,0.02079204,-0.02684768,0.00001531,0.00000191,0.00000260,-0.00000126,
 -0.00000717,-0.00000098,-0.00000111,-0.00000200,-0.00000199,-0.0000030
 2,0.00000039,0.00000466,0.00000084,0.00000145,0.00000139,0.00002717,-0
 .00000768,-0.00002190,-0.00000720,-0.00001498,0.00000069,-0.00002376,-
 0.00005046,-0.00004717,-0.00014106,-0.00088191,-0.00355626,0.00002790,
 -0.00005437,-0.00056877,0.00013603,0.00046038,0.00049595,-0.00532546,-
 0.03434305,0.01881473,0.00013161,0.00022513,0.00014475,0.00015774,-0.0
 0034667,-0.00031010,-0.00222635,0.00120906,-0.00009569,0.00716346,0.00
 172128,0.00188741,-0.01656849,0.01019980,-0.00252270,0.00281111,-0.006
 39278,0.00114522,0.02389246,0.00053621,0.00012632,-0.01883487,-0.00649
 227,0.00065089,0.01022676,0.01088595,-0.00183752,0.01617376,-0.0002365
 1,0.00030850,-0.01558058,-0.02685595,0.00440009,-0.20790515,-0.0364326
 4,0.00305294,-0.03755682,0.01081555,-0.00263782,0.00030452,0.00004170,
 0.00007003,-0.00004630,-0.00008398,-0.00001537,-0.00000783,-0.00003836
 ,-0.00009172,-0.00008571,-0.00002684,0.00002118,0.00002333,0.00011458,
 -0.00000284,0.00081312,-0.00020914,-0.00063242,-0.00021537,-0.00017351
 ,0.00003000,-0.00029415,-0.00052812,-0.00038870,0.00039758,-0.00004538
 ,-0.00004274,0.00107070,0.00074740,-0.00011929,-0.00039940,0.00420935,
 -0.00069763,-0.00225502,-0.00666591,0.00122258,0.61158846,0.00004668,0
 .00009385,0.00005030,0.00006837,-0.00011378,-0.00012503,-0.00084747,0.
 00048307,-0.00002252,0.00266021,0.00051632,0.00071117,-0.00622887,0.00
 431937,-0.00104397,0.00115480,-0.00277761,0.00043117,0.00900751,-0.000
 04258,-0.00003135,-0.00600997,-0.00497364,0.00053610,0.00926435,-0.000
 97606,0.00114271,0.00450449,-0.00866405,0.00258800,-0.03259342,-0.0044
 5317,0.00002446,-0.02269228,-0.10462310,0.00637400,0.01383810,0.025236
 70,-0.00512417,0.00010591,0.00001085,0.00002011,-0.00001113,-0.0000456
 2,0.00000099,0.00000056,-0.00001013,-0.00003370,-0.00003374,-0.0000040
 0,0.00000316,0.00000345,0.00001624,0.00000764,0.00031321,-0.00007264,-
 0.00024947,-0.00006265,-0.00006419,0.00001996,-0.00012687,-0.00017419,
 -0.00011201,0.00131495,0.00082459,0.00024096,-0.00114735,-0.00001850,0
 .00013637,-0.00058289,-0.00331513,0.00011980,-0.00243157,-0.00667529,0
 .00052617,0.01396039,0.52370168,-0.00000935,-0.00001395,-0.00000257,0.
 00000136,0.00001068,0.00003438,0.00003454,-0.00005940,0.00009926,-0.00
 029190,-0.00009274,-0.00004570,0.00073491,-0.00048412,-0.00007332,-0.0
 0017248,0.00026117,-0.00033322,-0.00099209,-0.00007349,-0.00059003,0.0
 0063215,0.00053852,-0.00108268,-0.00150639,0.00120566,0.00404553,-0.00
 054155,0.00248877,0.00481141,0.00543285,0.00013225,0.00008483,0.000573
 40,0.00604997,-0.06664513,-0.00319094,-0.00519672,-0.00467416,-0.00001
 901,-0.00000642,-0.00000360,0.00000290,0.00000832,0.00000767,0.0000088
 4,0.00000429,-0.00001465,-0.00000451,-0.00000276,-0.00002888,-0.000002
 19,-0.00000388,0.00000012,-0.00000653,0.00002098,-0.00003616,0.0000104
 9,0.00002027,0.00001347,0.00000507,0.00004347,0.00012194,-0.00024074,0
 .00019390,0.00199150,0.00021469,0.00017894,0.00086227,0.00014875,0.000
 24067,-0.00258075,0.00048267,0.00040149,-0.00343069,0.00056333,-0.0057
 2550,0.49124528,-0.00003755,-0.00006322,-0.00004037,-0.00004526,0.0000
 9637,0.00008815,0.00061679,-0.00033743,0.00003379,-0.00198230,-0.00046
 622,-0.00053991,0.00454976,-0.00276321,0.00081419,-0.00082915,0.001789
 94,-0.00035907,-0.00658186,0.00000510,-0.00010614,0.00530229,0.0012075
 1,0.00030333,-0.00225400,-0.00236666,-0.00030266,-0.00413300,-0.000673
 91,-0.00144884,-0.00142102,0.00661912,0.00227620,-0.01603314,-0.023062
 12,0.03353930,0.00555761,-0.00404573,0.00019079,-0.00008619,-0.0000124
 5,-0.00001967,0.00001305,0.00002520,0.00000485,0.00000297,0.00001073,0
 .00002397,0.00002316,0.00000661,-0.00000898,-0.00000580,-0.00002922,0.
 00000006,-0.00022213,0.00005594,0.00017182,0.00005934,0.00004846,-0.00
 000750,0.00009208,0.00014049,0.00010654,-0.00009131,-0.00003586,-0.000
 12176,-0.00047341,-0.00029745,-0.00048055,0.00027530,-0.00029257,0.000
 71796,-0.00178874,0.00320016,0.00084331,-0.10118788,-0.02811751,0.0553
 4601,0.09174924,-0.00002420,-0.00004459,-0.00002417,-0.00003214,0.0000
 6144,0.00006084,0.00040644,-0.00022823,0.00003103,-0.00130868,-0.00025
 743,-0.00038956,0.00317028,-0.00227797,0.00059513,-0.00047442,0.001474
 37,-0.00026881,-0.00472913,0.00013434,-0.00001275,0.00359092,0.0011336
 6,0.00002971,-0.00229998,-0.00125521,-0.00052590,-0.00295856,0.0008918
 5,-0.00108171,0.00131439,0.00323672,0.00044405,-0.01739935,-0.00096363
 ,0.01795512,0.00248354,-0.00648750,0.00227868,-0.00005351,-0.00000649,
 -0.00001094,0.00000647,0.00001998,0.00000170,0.00000154,0.00000619,0.0
 0001386,0.00001563,0.00000229,-0.00000637,-0.00000208,-0.00001204,-0.0
 0000166,-0.00014892,0.00003638,0.00011328,0.00002952,0.00003123,-0.000
 00635,0.00006424,0.00009574,0.00006732,-0.00029030,-0.00011020,-0.0001
 7774,-0.00013644,-0.00010891,-0.00015362,0.00035572,0.00053216,0.00039
 432,0.00316451,0.00158852,-0.00122135,-0.02565326,-0.09929292,0.065237
 59,0.02876532,0.12792839,0.00002602,0.00004383,0.00002402,0.00002898,-
 0.00006012,-0.00006824,-0.00038652,0.00021859,-0.00005080,0.00128098,0
 .00028718,0.00038938,-0.00298061,0.00191634,-0.00056417,0.00053503,-0.
 00125384,0.00032076,0.00433322,-0.00009814,0.00017989,-0.00333170,-0.0
 0100167,-0.00023081,0.00209816,0.00109122,0.00025378,0.00232253,0.0001
 0431,0.00066201,0.00160058,-0.00327270,-0.00125060,0.01410282,0.013506
 53,-0.00906745,-0.00334222,0.00482656,-0.00047817,0.00005689,0.0000088
 8,0.00001195,-0.00000773,-0.00001961,-0.00000488,-0.00000458,-0.000007
 41,-0.00000814,-0.00001322,-0.00000256,0.00001615,0.00000313,0.0000145
 2,0.00000079,0.00013605,-0.00003647,-0.00009326,-0.00003395,-0.0000335
 3,0.00000078,-0.00006728,-0.00009560,-0.00009093,0.00017071,0.00003616
 ,-0.00001546,0.00032872,0.00017771,0.00022249,-0.00033609,-0.00045231,
 -0.00036733,-0.00027982,-0.00249738,0.00085950,0.05655037,0.06137771,-
 0.19864903,-0.06603185,-0.10857201,0.31826112,-0.00003239,-0.00005287,
 -0.00003794,-0.00003544,0.00008535,0.00007466,0.00054254,-0.00029156,-
 0.00000127,-0.00171928,-0.00051321,-0.00040615,0.00354449,-0.00138421,
 0.00041912,-0.00100655,0.00086862,-0.00015930,-0.00469523,-0.00039932,
 0.00003268,0.00365141,0.00212246,-0.00027461,-0.00314295,0.00104765,-0
 .00024512,-0.00209392,0.00065280,-0.00017073,-0.00037486,0.00325774,-0
 .00058796,-0.03646488,0.04007378,-0.00820225,-0.00332693,-0.00915191,0
 .00145596,-0.00007928,-0.00001237,-0.00001964,0.00001354,0.00001758,0.
 00000537,0.00000257,0.00001059,0.00002492,0.00002050,0.00000872,-0.000
 00512,-0.00000902,-0.00003605,0.00000200,-0.00018943,0.00004823,0.0001
 5369,0.00006822,0.00004228,-0.00000650,0.00006421,0.00011917,0.0000976
 4,-0.00042087,-0.00045248,0.00007735,-0.00015763,-0.00023299,0.0000351
 7,-0.00372789,-0.00134115,0.00015262,0.00052668,0.00051462,-0.00008423
 ,-0.17500160,0.08592548,-0.01778101,0.01420022,0.00781092,-0.01276821,
 0.19716072,0.00000980,0.00001199,0.00001058,0.00000570,-0.00003074,-0.
 00001706,-0.00015004,0.00006917,-0.00001368,0.00050826,0.00022472,0.00
 014195,-0.00113473,0.00032612,-0.00013802,0.00024564,-0.00011136,0.000
 03929,0.00146355,0.00049577,-0.00006327,-0.00164863,-0.00109299,0.0001
 5946,0.00068389,0.00066523,-0.00018018,0.00099318,0.00219439,-0.000328
 60,-0.00423249,-0.00705808,0.00110335,0.00970176,-0.00291538,0.0023022
 0,-0.00089441,0.00103574,0.00030498,0.00002233,0.00000382,0.00000652,-
 0.00000546,0.00000069,-0.00000327,-0.00000124,-0.00000416,-0.00000666,
 -0.00000567,-0.00000456,0.00000205,0.00000457,0.00001934,-0.00000363,0
 .00005510,-0.00001764,-0.00004061,-0.00002417,-0.00000905,-0.00000076,
 0.00000345,-0.00004647,-0.00003817,0.00005701,0.00013537,-0.00010028,0
 .00018352,0.00006584,-0.00000264,-0.00310086,0.00262526,-0.00059138,0.
 00040831,0.00114860,-0.00015127,0.09468709,-0.16613053,0.01914489,0.01
 814384,-0.03975542,0.04339892,-0.14284990,0.27655246,-0.00000188,-0.00
 000249,-0.00000354,-0.00000353,0.00000927,0.00000037,0.00004502,-0.000
 02276,-0.00000764,-0.00012979,-0.00004413,-0.00003334,0.00028642,-0.00
 011159,-0.00000403,-0.00006125,0.00005914,0.00005629,-0.00037752,-0.00
 008373,0.00009071,0.00037820,0.00025471,0.00002927,-0.00018566,-0.0001
 6729,-0.00039543,-0.00023155,-0.00033973,0.00024809,0.00075386,0.00129
 490,-0.00044115,-0.00281420,0.00304201,0.00812701,0.00000500,0.0000946
 5,0.00280345,-0.00000460,-0.00000017,-0.00000142,0.00000119,-0.0000000
 5,-0.00000039,-0.00000110,0.00000054,0.00000497,0.00000275,0.00000083,
 0.00000413,-0.00000053,-0.00000368,0.00000019,-0.00001796,0.00000272,0
 .00002118,0.00000442,0.00000072,-0.00000255,0.00000093,0.00000907,-0.0
 0000690,-0.00001545,-0.00011225,-0.00043481,-0.00003769,-0.00001418,0.
 00001980,0.00046197,-0.00055375,-0.00021571,-0.00006512,-0.00014770,0.
 00027848,-0.01933307,0.01890842,-0.07522626,-0.02274675,0.05145960,-0.
 02579923,0.02821438,-0.03864409,0.08639006,-0.00003489,-0.00006170,-0.
 00004021,-0.00004323,0.00008957,0.00008386,0.00060898,-0.00033122,0.00
 000723,-0.00193402,-0.00044698,-0.00047523,0.00443547,-0.00273754,0.00
 056340,-0.00081710,0.00175686,-0.00027179,-0.00641404,0.00002172,-0.00
 001906,0.00519917,0.00103960,-0.00042154,-0.00220803,-0.00210116,0.000
 99778,-0.00413009,-0.00015357,0.00137964,-0.00115552,0.00533046,-0.004
 38866,-0.01407486,-0.03265535,-0.02410112,0.00537432,-0.00365954,0.001
 36762,-0.00008265,-0.00001110,-0.00001894,0.00001220,0.00002397,0.0000
 0309,0.00000138,0.00000987,0.00002685,0.00002333,0.00000749,-0.0000029
 7,-0.00000666,-0.00002950,-0.00000021,-0.00022254,0.00005561,0.0001752
 1,0.00006047,0.00004886,-0.00000997,0.00008394,0.00013905,0.00010180,-
 0.00008577,0.00000636,0.00012768,-0.00047911,-0.00011666,0.00051777,0.
 00028997,-0.00052941,-0.00053832,-0.00178670,0.00260428,-0.00200934,-0
 .09658908,-0.04128276,-0.03943326,0.01473092,0.00433153,0.00600958,0.0
 1268305,0.02687062,0.01587348,0.08656107,-0.00002884,-0.00005655,-0.00
 003349,-0.00004085,0.00007523,0.00007404,0.00053300,-0.00030166,0.0000
 0893,-0.00168544,-0.00031885,-0.00040655,0.00404562,-0.00286932,0.0005
 6481,-0.00065232,0.00185973,-0.00027397,-0.00599580,0.00016078,-0.0000
 8771,0.00458562,0.00133659,-0.00035351,-0.00294465,-0.00130559,0.00097
 580,-0.00367652,0.00115956,0.00074350,0.00076871,0.00369190,-0.0022611
 4,-0.02042336,-0.01256887,-0.01800262,0.00357673,-0.00808913,0.0006670
 9,-0.00006714,-0.00000694,-0.00001376,0.00000809,0.00002477,-0.0000002
 6,-0.00000071,0.00000678,0.00002409,0.00002105,0.00000415,0.00000103,-
 0.00000312,-0.00001695,-0.00000285,-0.00020107,0.00004985,0.00015973,0
 .00004302,0.00004299,-0.00001223,0.00007689,0.00011560,0.00007537,-0.0
 0033276,-0.00006045,0.00018405,-0.00025500,-0.00008204,0.00025576,0.00
 047825,0.00044594,-0.00067077,0.00300133,0.00271090,0.00066797,-0.0391
 7220,-0.15277553,-0.08452288,0.00244878,0.01362728,-0.00960513,0.01411
 203,-0.06839817,-0.03488900,0.04178064,0.22153801,-0.00001305,-0.00002
 664,-0.00001903,-0.00002174,0.00003750,0.00003290,0.00027812,-0.000152
 97,-0.00002891,-0.00083843,-0.00016486,-0.00017035,0.00190741,-0.00120
 637,0.00020403,-0.00038183,0.00080468,-0.00004390,-0.00275462,0.000096
 58,0.00009747,0.00215435,0.00051373,-0.00029424,-0.00129343,-0.0006492
 7,0.00025696,-0.00138057,-0.00031099,0.00037780,-0.00193036,0.00173794
 ,-0.00192993,-0.00787046,-0.01400938,0.00061454,0.00249523,-0.00220985
 ,0.00128210,-0.00003334,-0.00000287,-0.00000705,0.00000431,0.00001106,
 -0.00000163,-0.00000242,0.00000274,0.00001764,0.00001186,0.00000335,0.
 00000769,-0.00000187,-0.00001031,-0.00000164,-0.00010523,0.00002250,0.
 00009495,0.00002518,0.00002087,-0.00000960,0.00003929,0.00005100,0.000
 01833,-0.00005983,-0.00002253,-0.00006740,-0.00029139,-0.00007607,0.00
 020332,0.00021910,0.00013249,-0.00029232,-0.00096416,0.00194536,-0.000
 43101,-0.04144600,-0.08075148,-0.14990084,-0.00224623,-0.02622930,-0.0
 8446412,0.01000447,-0.02629059,0.00449839,0.04449563,0.14673371,0.2299
 5582\\-0.00000069,0.00000250,-0.00000124,0.00000376,-0.00000055,0.0000
 0111,-0.00000478,0.00000049,-0.00000018,0.00001552,0.00001680,0.000000
 77,-0.00001455,-0.00001672,0.00000041,0.00000263,0.00001009,-0.0000046
 0,-0.00000262,-0.00000163,0.00000336,0.00000068,0.00000420,0.00000021,
 -0.00000433,-0.00000375,-0.00000002,-0.00000153,0.00000019,0.00000133,
 0.00000032,-0.00000245,0.00000356,-0.00000350,0.00000534,-0.00000148,0
 .00000374,-0.00000775,-0.00000232,-0.00000004,0.,0.00000103,-0.0000001
 9,0.00000089,-0.00000237,0.00000054,0.00000357,-0.00000025,-0.00000010
 ,-0.00000021,0.00000061,-0.00000047,0.00000018,0.00000150,-0.00000203,
 0.00000250,0.00000216,0.00000400,-0.00000235,-0.00000121,-0.00000203,-
 0.00000300,-0.00000023,0.00000141,-0.00000058,-0.00000302,-0.00000050,
 -0.00000017,0.00000300,-0.00000116,-0.00000065,0.00000223,0.00000211,0
 .00000070,-0.00000279,0.00000410,-0.00000342,-0.00000300,-0.00000200,-
 0.00000131,0.00000450,0.00000266,-0.00000458,0.00000133,-0.00000093,0.
 00000167,-0.00000438\\\@


 I FIND THAT THE THREE TRULY GREAT TIMES FOR THINKING THOUGHTS
 ARE WHEN I AM STANDING IN THE SHOWER, SITTING ON THE JOHN, OR WALKING.

                                    -- COLIN FLETCHER
 Job cpu time:       0 days  2 hours 59 minutes 22.3 seconds.
 File lengths (MBytes):  RWF=    437 Int=      0 D2E=      0 Chk=     11 Scr=      1
 Normal termination of Gaussian 09 at Wed Oct 31 13:54:21 2018.
WARNING: pbs_rusage is deprecated and values produced may not be accurate


=============================================================================
                                     Resource usage:
                                       CPU time:              08:14:56
   JobId:    1873087.r-man2            Elapsed time:          02:04:18
   Project:             q95            Requested time:        36:00:00
   Service Units:      8.29 
                                       Max physical memory:      658MB
                                       Max virtual memory:      1400MB
                                       Requested memory:           0MB

                                       Number of cpus:               4

                                       Max jobfs disk use:       0.4GB
                                       Requested jobfs:         16.0GB
=============================================================================

