 Entering Gaussian System, Link 0=/apps/gaussian/g09e01/g09/g09
 AtFile(1): /home/507/hio507/Basis/6-31pGd.gbs
 Initial command:
 /apps/gaussian/g09e01/g09/l1.exe "/jobfs/local/7529825.r-man2/Gau-19243.inp" -scrdir="/jobfs/local/7529825.r-man2/"
 Entering Link 1 = /apps/gaussian/g09e01/g09/l1.exe PID=     19244.
  
 Copyright (c) 1988,1990,1992,1993,1995,1998,2003,2009,2015,
            Gaussian, Inc.  All Rights Reserved.
  
 This is part of the Gaussian(R) 09 program.  It is based on
 the Gaussian(R) 03 system (copyright 2003, Gaussian, Inc.),
 the Gaussian(R) 98 system (copyright 1998, Gaussian, Inc.),
 the Gaussian(R) 94 system (copyright 1995, Gaussian, Inc.),
 the Gaussian 92(TM) system (copyright 1992, Gaussian, Inc.),
 the Gaussian 90(TM) system (copyright 1990, Gaussian, Inc.),
 the Gaussian 88(TM) system (copyright 1988, Gaussian, Inc.),
 the Gaussian 86(TM) system (copyright 1986, Carnegie Mellon
 University), and the Gaussian 82(TM) system (copyright 1983,
 Carnegie Mellon University). Gaussian is a federally registered
 trademark of Gaussian, Inc.
  
 This software contains proprietary and confidential information,
 including trade secrets, belonging to Gaussian, Inc.
  
 This software is provided under written license and may be
 used, copied, transmitted, or stored only in accord with that
 written license.
  
 The following legend is applicable only to US Government
 contracts under FAR:
  
                    RESTRICTED RIGHTS LEGEND
  
 Use, reproduction and disclosure by the US Government is
 subject to restrictions as set forth in subparagraphs (a)
 and (c) of the Commercial Computer Software - Restricted
 Rights clause in FAR 52.227-19.
  
 Gaussian, Inc.
 340 Quinnipiac St., Bldg. 40, Wallingford CT 06492
  
  
 ---------------------------------------------------------------
 Warning -- This program may not be used in any manner that
 competes with the business of Gaussian, Inc. or will provide
 assistance to any competitor of Gaussian, Inc.  The licensee
 of this program is prohibited from giving any competitor of
 Gaussian, Inc. access to this program.  By using this program,
 the user acknowledges that Gaussian, Inc. is engaged in the
 business of creating and licensing software in the field of
 computational chemistry and represents and warrants to the
 licensee that it is not a competitor of Gaussian, Inc. and that
 it will not use this program in any manner prohibited above.
 ---------------------------------------------------------------
  

 Cite this work as:
 Gaussian 09, Revision E.01,
 M. J. Frisch, G. W. Trucks, H. B. Schlegel, G. E. Scuseria, 
 M. A. Robb, J. R. Cheeseman, G. Scalmani, V. Barone, B. Mennucci, 
 G. A. Petersson, H. Nakatsuji, M. Caricato, X. Li, H. P. Hratchian, 
 A. F. Izmaylov, J. Bloino, G. Zheng, J. L. Sonnenberg, M. Hada, 
 M. Ehara, K. Toyota, R. Fukuda, J. Hasegawa, M. Ishida, T. Nakajima, 
 Y. Honda, O. Kitao, H. Nakai, T. Vreven, J. A. Montgomery, Jr., 
 J. E. Peralta, F. Ogliaro, M. Bearpark, J. J. Heyd, E. Brothers, 
 K. N. Kudin, V. N. Staroverov, T. Keith, R. Kobayashi, J. Normand, 
 K. Raghavachari, A. Rendell, J. C. Burant, S. S. Iyengar, J. Tomasi, 
 M. Cossi, N. Rega, J. M. Millam, M. Klene, J. E. Knox, J. B. Cross, 
 V. Bakken, C. Adamo, J. Jaramillo, R. Gomperts, R. E. Stratmann, 
 O. Yazyev, A. J. Austin, R. Cammi, C. Pomelli, J. W. Ochterski, 
 R. L. Martin, K. Morokuma, V. G. Zakrzewski, G. A. Voth, 
 P. Salvador, J. J. Dannenberg, S. Dapprich, A. D. Daniels, 
 O. Farkas, J. B. Foresman, J. V. Ortiz, J. Cioslowski, 
 and D. J. Fox, Gaussian, Inc., Wallingford CT, 2013.
 
 ******************************************
 Gaussian 09:  ES64L-G09RevE.01 30-Nov-2015
                 9-Apr-2019 
 ******************************************
 %chk=4Nitro_EtO_c3.M062X_6-31pGd_bsse.chk
 %mem=196608000
 %nproc=4
 Will use up to    4 processors via shared memory.
 ----------------------------------------------------------------------
 # M062X/Gen 6D SCF=Tight INT(grid=ultrafine) Counterpoise=2 maxdisk=67
 1088640
 ----------------------------------------------------------------------
 1/38=1,62=2/1;
 2/12=2,17=6,18=5,40=1/2;
 1/38=1,53=2,62=2,63=1/22;
 3/5=7,8=2,11=2,16=1,25=1,30=1,74=-55,75=-5/1,2,3;
 4//1;
 5/5=2,32=2,38=5/2;
 6/7=2,8=2,9=2,10=2,28=1/1;
 1/53=2,62=2,63=1/22;
 3/5=7,6=11,8=2,11=2,16=1,25=1,30=1,74=-55,75=-5,82=7/1,2,3;
 4//1;
 5/5=2,32=2,38=5/2;
 6/7=2,8=2,9=2,10=2,28=1/1;
 1/53=2,62=2,63=1/22(-4);
 99/5=1,9=1/99;
 --------------------------------
 4Nitro_EtO_c3.M062X_6-31pGd_bsse
 --------------------------------
 Symbolic Z-matrix:
 Charge = -1 Multiplicity = 1 in supermolecule
 Charge =  0 Multiplicity = 1 in fragment      1.
 Charge = -1 Multiplicity = 1 in fragment      2.
 C(Fragment=1)        -3.75133   3.9287   -1.45054 
 C(Fragment=1)        -3.94556   2.62437  -0.98463 
 C(Fragment=1)        -2.93693   2.00141  -0.2802 
 C(Fragment=1)        -1.70967   2.66595  -0.02442 
 C(Fragment=1)        -1.5357    3.98503  -0.50525 
 C(Fragment=1)        -2.55399   4.60282  -1.21178 
 N(Fragment=1)        -0.77201   1.96087   0.68313 
 C(Fragment=1)         0.50256   2.38346   1.05735 
 N(Fragment=1)         1.18275   1.43627   1.74312 
 O(Fragment=1)         0.95866   3.49996   0.79917 
 C(Fragment=1)         2.53103   1.69608   2.19079 
 C(Fragment=1)         3.57762   1.53058   1.08683 
 C(Fragment=1)         4.98657   1.82721   1.59598 
 H(Fragment=1)        -3.06052   0.98791   0.09343 
 H(Fragment=1)        -0.60395   4.49755  -0.31231 
 H(Fragment=1)        -1.05869   0.99558   0.96432 
 H(Fragment=1)         0.77783   0.49519   1.91024 
 H(Fragment=1)         2.74012   0.99954   3.01104 
 H(Fragment=1)         2.58349   2.71723   2.58857 
 H(Fragment=1)         3.3181    2.20875   0.26625 
 H(Fragment=1)         3.51881   0.50685   0.69772 
 H(Fragment=1)         5.05768   2.85634   1.96737 
 H(Fragment=1)         5.73555   1.70444   0.80653 
 H(Fragment=1)         5.25692   1.15639   2.42074 
 H(Fragment=1)        -4.8841    2.11914  -1.18153 
 H(Fragment=1)        -2.43083   5.61343  -1.58439 
 N(Fragment=1)        -4.80636   4.58709  -2.18958 
 O(Fragment=1)        -4.61496   5.73153  -2.58828 
 O(Fragment=1)        -5.85001   3.97355  -2.38753 
 O(Fragment=2)        -1.72681  -0.54628   1.31345 
 C(Fragment=2)        -0.96558  -1.35945   1.90633 
 O(Fragment=2)         0.21583  -1.13678   2.27194 
 C(Fragment=2)        -1.52131  -2.75853   2.215 
 C(Fragment=2)        -2.96438  -2.97578   1.77706 
 H(Fragment=2)        -1.40697  -2.91824   3.29421 
 H(Fragment=2)        -0.85042  -3.48194   1.7351 
 H(Fragment=2)        -3.62858  -2.25688   2.2655 
 H(Fragment=2)        -3.30515  -3.98926   2.02192 
 H(Fragment=2)        -3.06771  -2.82348   0.69888 
 
                          Input orientation:                          
 ---------------------------------------------------------------------
 Center     Atomic      Atomic             Coordinates (Angstroms)
 Number     Number       Type             X           Y           Z
 ---------------------------------------------------------------------
      1          6           0       -3.751326    3.928700   -1.450540
      2          6           0       -3.945557    2.624373   -0.984629
      3          6           0       -2.936928    2.001406   -0.280203
      4          6           0       -1.709669    2.665952   -0.024422
      5          6           0       -1.535696    3.985031   -0.505247
      6          6           0       -2.553994    4.602817   -1.211775
      7          7           0       -0.772009    1.960873    0.683129
      8          6           0        0.502556    2.383461    1.057353
      9          7           0        1.182752    1.436269    1.743122
     10          8           0        0.958657    3.499964    0.799166
     11          6           0        2.531029    1.696075    2.190789
     12          6           0        3.577621    1.530575    1.086834
     13          6           0        4.986574    1.827206    1.595981
     14          1           0       -3.060524    0.987906    0.093434
     15          1           0       -0.603947    4.497547   -0.312310
     16          1           0       -1.058693    0.995576    0.964317
     17          1           0        0.777834    0.495188    1.910244
     18          1           0        2.740122    0.999535    3.011044
     19          1           0        2.583493    2.717231    2.588571
     20          1           0        3.318097    2.208751    0.266251
     21          1           0        3.518810    0.506852    0.697719
     22          1           0        5.057685    2.856336    1.967373
     23          1           0        5.735552    1.704445    0.806534
     24          1           0        5.256917    1.156387    2.420739
     25          1           0       -4.884095    2.119137   -1.181531
     26          1           0       -2.430831    5.613430   -1.584394
     27          7           0       -4.806364    4.587090   -2.189578
     28          8           0       -4.614956    5.731527   -2.588282
     29          8           0       -5.850011    3.973551   -2.387535
     30          8           0       -1.726809   -0.546276    1.313447
     31          6           0       -0.965579   -1.359445    1.906329
     32          8           0        0.215833   -1.136776    2.271944
     33          6           0       -1.521306   -2.758525    2.215000
     34          6           0       -2.964385   -2.975778    1.777056
     35          1           0       -1.406972   -2.918239    3.294213
     36          1           0       -0.850422   -3.481940    1.735105
     37          1           0       -3.628579   -2.256884    2.265498
     38          1           0       -3.305151   -3.989263    2.021919
     39          1           0       -3.067709   -2.823484    0.698881
 ---------------------------------------------------------------------
                    Distance matrix (angstroms):
                    1          2          3          4          5
     1  C    0.000000
     2  C    1.398595   0.000000
     3  C    2.397373   1.378999   0.000000
     4  C    2.792259   2.433706   1.418876   0.000000
     5  C    2.409517   2.808671   2.439030   1.414719   0.000000
     6  C    1.394649   2.429462   2.789589   2.423663   1.384837
     7  N    4.159474   3.645965   2.369921   1.370026   2.468334
     8  C    5.174244   4.900351   3.710130   2.478705   3.026750
     9  N    6.384107   5.928893   4.624390   3.605888   4.352161
    10  O    5.237264   5.291493   4.311183   2.914419   2.856322
    11  C    7.596833   7.272632   6.008126   4.881735   5.389450
    12  C    8.118050   7.879439   6.673066   5.520815   5.891102
    13  C    9.489387   9.331559   8.144464   6.940379   7.184105
    14  H    3.392541   2.150239   1.087226   2.157437   3.415593
    15  H    3.394872   3.889364   3.416804   2.158759   1.080765
    16  H    4.656718   3.845173   2.467446   2.047323   3.365114
    17  H    6.602815   5.934993   4.567954   3.826594   4.833841
    18  H    8.403847   7.956369   6.638143   5.638407   6.289682
    19  H    7.609994   7.443445   6.262373   5.026092   5.305350
    20  H    7.475449   7.382284   6.282272   5.056872   5.225867
    21  H    8.317388   7.939204   6.698251   5.702648   6.252430
    22  H    9.509509   9.477684   8.348433   7.056952   7.131652
    23  H   10.002127   9.888296   8.745346   7.552900   7.732586
    24  H   10.189257   9.921544   8.668808   7.535974   7.918472
    25  H    2.151755   1.083922   2.148887   3.422702   3.892390
    26  H    2.144747   3.404200   3.873470   3.411923   2.148839
    27  N    1.446637   2.458688   3.718369   4.238890   3.727830
    28  O    2.300108   3.560085   4.696468   4.940832   4.107448
    29  O    2.298793   2.723117   4.100763   4.943334   4.707064
    30  O    5.635930   4.500779   3.239566   3.479740   4.886401
    31  C    6.855176   5.754017   4.467936   4.526068   5.891023
    32  O    7.433323   6.486038   5.128503   4.841652   6.083877
    33  C    7.945323   6.714924   5.557604   5.871579   7.271554
    34  C    7.662145   6.320703   5.385668   6.053821   7.463439
    35  H    8.653858   7.448050   6.270575   6.502934   7.880838
    36  H    8.572116   7.366402   6.203390   6.452195   7.825882
    37  H    7.217026   5.872859   5.009192   5.758495   7.142737
    38  H    8.657435   7.293122   6.428332   7.143175   8.550257
    39  H    7.118942   5.769226   4.924963   5.700995   7.081869
                    6          7          8          9         10
     6  C    0.000000
     7  N    3.707561   0.000000
     8  C    4.406470   1.393965   0.000000
     9  N    5.720290   2.284706   1.352819   0.000000
    10  O    4.195103   2.318938   1.233397   2.280375   0.000000
    11  C    6.773777   3.640496   2.423196   1.444215   2.768209
    12  C    7.233186   4.389466   3.191286   2.484956   3.289410
    13  C    8.511620   5.832019   4.550380   3.826688   4.433638
    14  H    3.876561   2.555720   3.946169   4.574701   4.791900
    15  H    2.150071   2.730176   2.751305   4.097379   2.161546
    16  H    4.470290   1.045492   2.091024   2.413467   3.220084
    17  H    6.141718   2.460905   2.090162   1.038037   3.208718
    18  H    7.670952   4.321854   3.277020   2.055180   3.783935
    19  H    6.662720   3.932198   2.605059   2.077914   2.540617
    20  H    6.511341   4.118762   2.929785   2.708796   2.741932
    21  H    7.569812   4.530509   3.570544   2.722839   3.939974
    22  H    8.431775   6.036262   4.669148   4.133036   4.310568
    23  H    9.010588   6.513780   5.282823   4.655867   5.103202
    24  H    9.278112   6.325696   5.095928   4.139604   5.157217
    25  H    3.405724   4.517882   5.839390   6.769530   6.321993
    26  H    1.084137   4.608094   5.100616   6.448179   4.651529
    27  N    2.455507   5.605843   6.601755   7.827088   6.584064
    28  O    2.723292   6.299858   7.119629   8.415683   6.893463
    29  O    3.555575   6.266255   7.399374   8.541655   7.532417
    30  O    5.794320   2.755855   3.690394   3.546921   4.883469
    31  C    6.913335   3.543755   4.109200   3.529586   5.342504
    32  O    7.263001   3.618784   3.734904   2.799133   4.921405
    33  C    8.185267   5.018046   5.645900   5.013072   6.879207
    34  C    8.156999   5.511235   6.423324   6.055250   7.634249
    35  H    8.842278   5.570159   6.062826   5.298518   7.281126
    36  H    8.772090   5.544097   6.057460   5.321902   7.272945
    37  H    7.765415   5.334169   6.329194   6.087788   7.505609
    38  H    9.211126   6.604035   7.486029   7.046658   8.704235
    39  H    7.685340   5.306652   6.323572   6.107565   7.497178
                   11         12         13         14         15
    11  C    0.000000
    12  C    1.530183   0.000000
    13  C    2.529959   1.527209   0.000000
    14  H    6.013806   6.733966   8.229086   0.000000
    15  H    4.893037   5.314699   6.482763   4.303136   0.000000
    16  H    3.857595   4.668688   6.134808   2.183076   3.755046
    17  H    2.143485   3.096585   4.425667   4.275109   4.782043
    18  H    1.096224   2.164715   2.781005   6.493079   5.870567
    19  H    1.097152   2.156769   2.748122   6.408682   4.663089
    20  H    2.141533   1.095734   2.167389   6.496702   4.577745
    21  H    2.149238   1.096758   2.168995   6.624516   5.826056
    22  H    2.789285   2.173380   1.096402   8.538617   6.320173
    23  H    3.490731   2.182994   1.095109   8.853976   7.017298
    24  H    2.788298   2.177005   1.096954   8.638550   7.278916
    25  H    8.156935   8.780235  10.258163   2.496123   4.973133
    26  H    7.363269   7.739939   8.914492   4.960554   2.490161
    27  N    9.021247   9.506227  10.855830   4.605890   4.603527
    28  O    9.496814   9.913263  11.177708   5.666551   4.773987
    29  O    9.817829  10.340194  11.743371   4.780221   5.665891
    30  O    4.891528   5.701021   7.126201   2.370853   5.417015
    31  C    4.652245   5.446509   6.758638   3.631176   6.273555
    32  O    3.659476   4.452063   5.657038   4.471543   6.252680
    33  C    6.022081   6.757825   7.985275   4.572306   7.738179
    34  C    7.224746   7.973799   9.290812   4.307507   8.110962
    35  H    6.165816   7.036380   8.141294   5.313867   8.285272
    36  H    6.201105   6.719608   7.891572   5.249682   8.241654
    37  H    7.319306   8.225777   9.557662   3.945784   7.836825
    38  H    8.149391   8.872178  10.137329   5.343323   9.207120
    39  H    7.348337   7.954165   9.343724   3.859185   7.790386
                   16         17         18         19         20
    16  H    0.000000
    17  H    2.125558   0.000000
    18  H    4.315102   2.305797   0.000000
    19  H    4.343710   2.942449   1.775808   0.000000
    20  H    4.595148   3.477348   3.054529   2.488246   0.000000
    21  H    4.611232   2.997216   2.490093   3.055473   1.767176
    22  H    6.471370   4.888293   3.147706   2.554772   2.517806
    23  H    6.832947   5.221058   3.785414   3.759902   2.527908
    24  H    6.483360   4.556311   2.589849   3.100257   3.083555
    25  H    4.527776   6.652347   8.772678   8.386671   8.329469
    26  H    5.450071   6.978856   8.315337   7.137580   6.933030
    27  N    6.073801   8.045835   9.842076   8.996503   8.814446
    28  O    6.906316   8.760032  10.384670   9.365012   9.137376
    29  O    6.562009   8.631236  10.572597   9.872383   9.706250
    30  O    1.716268   2.777418   5.022433   5.554739   5.842762
    31  C    2.538145   2.545421   4.529614   5.447996   5.811348
    32  O    2.807353   1.763513   3.388529   4.534251   4.983914
    33  C    3.983904   3.995694   5.737288   6.853673   7.203560
    34  C    4.479269   5.105835   7.061674   7.990486   8.284410
    35  H    4.568113   4.282550   5.712052   6.941201   7.601373
    36  H    4.548147   4.301098   5.882487   7.137920   7.205418
    37  H    4.344638   5.207358   7.191694   7.964674   8.496776
    38  H    5.568995   6.065768   7.900114   8.942834   9.239327
    39  H    4.323403   5.221990   7.327515   8.136740   8.141810
                   21         22         23         24         25
    21  H    0.000000
    22  H    3.082245   0.000000
    23  H    2.521906   1.770284   0.000000
    24  H    2.532135   1.770610   1.770626   0.000000
    25  H    8.760129  10.454570  10.812089  10.804784   0.000000
    26  H    8.165991   8.734671   9.364107   9.747193   4.288460
    27  N    9.710476  10.843210  11.332180  11.588544   2.667019
    28  O   10.210444  11.071616  11.613577  11.978149   3.885968
    29  O   10.455218  11.797932  12.230134  12.426574   2.413771
    30  O    5.385603   7.618054   7.810860   7.273072   4.826779
    31  C    5.005352   7.352295   7.449975   6.731529   6.081955
    32  O    4.011154   6.283409   6.378656   5.540150   6.966831
    33  C    6.194158   8.652809   8.635036   7.830273   6.829082
    34  C    7.438111   9.919848   9.926494   9.223823   6.196505
    35  H    6.537305   8.769151   8.864164   7.859577   7.582732
    36  H    6.006398   8.667954   8.434209   7.699595   7.493287
    37  H    7.821850  10.083902  10.271691   9.519798   5.710332
    38  H    8.278587  10.807508  10.753128   9.997289   7.075853
    39  H    7.380608   9.994571   9.900057   9.386350   5.591485
                   26         27         28         29         30
    26  H    0.000000
    27  N    2.657589   0.000000
    28  O    2.406686   1.226923   0.000000
    29  O    3.876214   1.226709   2.157809   0.000000
    30  O    6.843618   6.935869   7.935723   7.150307   0.000000
    31  C    7.934299   8.178591   9.154308   8.410457   1.261833
    32  O    8.212275   8.825547   9.702160   9.198948   2.245277
    33  C    9.238629   9.173329  10.233434   9.232652   2.397723
    34  C    9.238968   8.736363   9.879156   8.600222   2.765684
    35  H    9.881218   9.897362  10.941360   9.975952   3.106757
    36  H    9.810328   9.806215  10.851330   9.878076   3.092568
    37  H    8.842970   8.250749   9.399300   8.087261   2.729343
    38  H   10.294738   9.671823  10.838048   9.451243   3.853214
    39  H    8.763588   8.141420   9.294494   7.966608   2.713186
                   31         32         33         34         35
    31  C    0.000000
    32  O    1.256579   0.000000
    33  C    1.536729   2.377176   0.000000
    34  C    2.573804   3.706836   1.523637   0.000000
    35  H    2.133281   2.617660   1.096942   2.174997   0.000000
    36  H    2.132502   2.631519   1.097139   2.174120   1.748806
    37  H    2.833014   4.004271   2.166747   1.093864   2.535977
    38  H    3.521775   4.538339   2.175799   1.096919   2.523669
    39  H    2.832011   4.012625   2.166610   1.093768   3.082656
                   36         37         38         39
    36  H    0.000000
    37  H    3.082245   0.000000
    38  H    2.522961   1.779065   0.000000
    39  H    2.534499   1.757811   1.779283   0.000000
 Stoichiometry    C13H18N3O5(1-)
 Framework group  C1[X(C13H18N3O5)]
 Deg. of freedom   111
 Full point group                 C1      NOp   1
 Largest Abelian subgroup         C1      NOp   1
 Largest concise Abelian subgroup C1      NOp   1
                         Standard orientation:                         
 ---------------------------------------------------------------------
 Center     Atomic      Atomic             Coordinates (Angstroms)
 Number     Number       Type             X           Y           Z
 ---------------------------------------------------------------------
      1          6           0       -3.849985   -0.335367    0.055449
      2          6           0       -3.136689    0.866544    0.107300
      3          6           0       -1.761214    0.840462    0.012288
      4          6           0       -1.064797   -0.386775   -0.136381
      5          6           0       -1.807175   -1.590016   -0.186534
      6          6           0       -3.188203   -1.554321   -0.090296
      7          7           0        0.300163   -0.305264   -0.221298
      8          6           0        1.205174   -1.355643   -0.365511
      9          7           0        2.489340   -0.932161   -0.406736
     10          8           0        0.873186   -2.540255   -0.453534
     11          6           0        3.562874   -1.890205   -0.530959
     12          6           0        3.918186   -2.575535    0.790229
     13          6           0        5.046383   -3.589723    0.614263
     14          1           0       -1.181445    1.759437    0.049908
     15          1           0       -1.282969   -2.528129   -0.301451
     16          1           0        0.693268    0.661954   -0.166435
     17          1           0        2.731047    0.071016   -0.293887
     18          1           0        4.435209   -1.351125   -0.918425
     19          1           0        3.277247   -2.651363   -1.267708
     20          1           0        3.017436   -3.069527    1.171351
     21          1           0        4.204323   -1.807149    1.518643
     22          1           0        4.758626   -4.372598   -0.097355
     23          1           0        5.303061   -4.076730    1.560945
     24          1           0        5.953403   -3.107412    0.229557
     25          1           0       -3.671327    1.802562    0.220960
     26          1           0       -3.766401   -2.470637   -0.127792
     27          7           0       -5.293091   -0.313662    0.154100
     28          8           0       -5.898816   -1.379531    0.105524
     29          8           0       -5.852470    0.770513    0.282451
     30          8           0        1.120026    2.320158   -0.048895
     31          6           0        2.355677    2.575689   -0.039174
     32          8           0        3.286704    1.735923   -0.122689
     33          6           0        2.776644    4.048108    0.088505
     34          6           0        1.616256    5.032823    0.161368
     35          1           0        3.430864    4.269805   -0.763626
     36          1           0        3.413384    4.122428    0.978872
     37          1           0        0.990593    4.959235   -0.732875
     38          1           0        1.976639    6.064862    0.252202
     39          1           0        0.974334    4.810286    1.018539
 ---------------------------------------------------------------------
 Rotational constants (GHZ):      0.3375318      0.1488082      0.1049412
 Counterpoise: doing full dimer calculation.
 General basis read from cards:  (6D, 7F)
 There are   435 symmetry adapted cartesian basis functions of A   symmetry.
 There are   435 symmetry adapted basis functions of A   symmetry.
   435 basis functions,   744 primitive gaussians,   435 cartesian basis functions
    79 alpha electrons       79 beta electrons
       nuclear repulsion energy      1630.2622221361 Hartrees.
 NAtoms=   39 NActive=   39 NUniq=   39 SFac= 1.00D+00 NAtFMM=   60 NAOKFM=F Big=F
 Integral buffers will be    131072 words long.
 Raffenetti 2 integral format.
 Two-electron integral symmetry is turned on.
 One-electron integrals computed using PRISM.
 NBasis=   435 RedAO= T EigKep=  1.24D-06  NBF=   435
 NBsUse=   434 1.00D-06 EigRej=  8.49D-07 NBFU=   434
 ExpMin= 4.38D-02 ExpMax= 5.48D+03 ExpMxC= 8.25D+02 IAcc=3 IRadAn=         5 AccDes= 0.00D+00
 Harris functional with IExCor= 1009 and IRadAn=       5 diagonalized for initial guess.
 HarFok:  IExCor= 1009 AccDes= 0.00D+00 IRadAn=         5 IDoV= 1 UseB2=F ITyADJ=14
 ICtDFT=  3500011 ScaDFX=  1.000000  1.000000  1.000000  1.000000
 FoFCou: FMM=F IPFlag=           0 FMFlag=      100000 FMFlg1=           0
         NFxFlg=           0 DoJE=T BraDBF=F KetDBF=T FulRan=T
         wScrn=  0.000000 ICntrl=     500 IOpCl=  0 I1Cent=   200000004 NGrid=           0
         NMat0=    1 NMatS0=      1 NMatT0=    0 NMatD0=    1 NMtDS0=    0 NMtDT0=    0
 Petite list used in FoFCou.
 Requested convergence on RMS density matrix=1.00D-08 within 128 cycles.
 Requested convergence on MAX density matrix=1.00D-06.
 Requested convergence on             energy=1.00D-06.
 No special actions if energy rises.
 SCF Done:  E(RM062X) =  -1046.26094606     A.U. after   16 cycles
            NFock= 16  Conv=0.82D-08     -V/T= 2.0085

 **********************************************************************

            Population analysis using the SCF density.

 **********************************************************************

 Orbital symmetries:
       Occupied  (A) (A) (A) (A) (A) (A) (A) (A) (A) (A) (A) (A)
                 (A) (A) (A) (A) (A) (A) (A) (A) (A) (A) (A) (A)
                 (A) (A) (A) (A) (A) (A) (A) (A) (A) (A) (A) (A)
                 (A) (A) (A) (A) (A) (A) (A) (A) (A) (A) (A) (A)
                 (A) (A) (A) (A) (A) (A) (A) (A) (A) (A) (A) (A)
                 (A) (A) (A) (A) (A) (A) (A) (A) (A) (A) (A) (A)
                 (A) (A) (A) (A) (A) (A) (A)
       Virtual   (A) (A) (A) (A) (A) (A) (A) (A) (A) (A) (A) (A)
                 (A) (A) (A) (A) (A) (A) (A) (A) (A) (A) (A) (A)
                 (A) (A) (A) (A) (A) (A) (A) (A) (A) (A) (A) (A)
                 (A) (A) (A) (A) (A) (A) (A) (A) (A) (A) (A) (A)
                 (A) (A) (A) (A) (A) (A) (A) (A) (A) (A) (A) (A)
                 (A) (A) (A) (A) (A) (A) (A) (A) (A) (A) (A) (A)
                 (A) (A) (A) (A) (A) (A) (A) (A) (A) (A) (A) (A)
                 (A) (A) (A) (A) (A) (A) (A) (A) (A) (A) (A) (A)
                 (A) (A) (A) (A) (A) (A) (A) (A) (A) (A) (A) (A)
                 (A) (A) (A) (A) (A) (A) (A) (A) (A) (A) (A) (A)
                 (A) (A) (A) (A) (A) (A) (A) (A) (A) (A) (A) (A)
                 (A) (A) (A) (A) (A) (A) (A) (A) (A) (A) (A) (A)
                 (A) (A) (A) (A) (A) (A) (A) (A) (A) (A) (A) (A)
                 (A) (A) (A) (A) (A) (A) (A) (A) (A) (A) (A) (A)
                 (A) (A) (A) (A) (A) (A) (A) (A) (A) (A) (A) (A)
                 (A) (A) (A) (A) (A) (A) (A) (A) (A) (A) (A) (A)
                 (A) (A) (A) (A) (A) (A) (A) (A) (A) (A) (A) (A)
                 (A) (A) (A) (A) (A) (A) (A) (A) (A) (A) (A) (A)
                 (A) (A) (A) (A) (A) (A) (A) (A) (A) (A) (A) (A)
                 (A) (A) (A) (A) (A) (A) (A) (A) (A) (A) (A) (A)
                 (A) (A) (A) (A) (A) (A) (A) (A) (A) (A) (A) (A)
                 (A) (A) (A) (A) (A) (A) (A) (A) (A) (A) (A) (A)
                 (A) (A) (A) (A) (A) (A) (A) (A) (A) (A) (A) (A)
                 (A) (A) (A) (A) (A) (A) (A) (A) (A) (A) (A) (A)
                 (A) (A) (A) (A) (A) (A) (A) (A) (A) (A) (A) (A)
                 (A) (A) (A) (A) (A) (A) (A) (A) (A) (A) (A) (A)
                 (A) (A) (A) (A) (A) (A) (A) (A) (A) (A) (A) (A)
                 (A) (A) (A) (A) (A) (A) (A) (A) (A) (A) (A) (A)
                 (A) (A) (A) (A) (A) (A) (A) (A) (A) (A) (A) (A)
                 (A) (A) (A) (A) (A) (A) (A)
 The electronic state is 1-A.
 Alpha  occ. eigenvalues --  -19.58110 -19.58094 -19.49814 -19.47669 -19.47113
 Alpha  occ. eigenvalues --  -14.91407 -14.67653 -14.65588 -10.56827 -10.52274
 Alpha  occ. eigenvalues --  -10.51523 -10.50283 -10.47718 -10.47653 -10.47638
 Alpha  occ. eigenvalues --  -10.45864 -10.45632 -10.45620 -10.44776 -10.43311
 Alpha  occ. eigenvalues --  -10.43244  -1.26508  -1.07690  -1.05990  -1.03747
 Alpha  occ. eigenvalues --   -0.94668  -0.93973  -0.91253  -0.87965  -0.79808
 Alpha  occ. eigenvalues --   -0.78007  -0.76211  -0.75370  -0.70392  -0.66462
 Alpha  occ. eigenvalues --   -0.62145  -0.61578  -0.59917  -0.57635  -0.55186
 Alpha  occ. eigenvalues --   -0.54517  -0.52605  -0.52389  -0.51111  -0.49797
 Alpha  occ. eigenvalues --   -0.46634  -0.44027  -0.43878  -0.42355  -0.42141
 Alpha  occ. eigenvalues --   -0.42065  -0.41860  -0.41109  -0.40327  -0.39105
 Alpha  occ. eigenvalues --   -0.38729  -0.38073  -0.36849  -0.35681  -0.34984
 Alpha  occ. eigenvalues --   -0.34508  -0.33893  -0.33243  -0.31942  -0.31713
 Alpha  occ. eigenvalues --   -0.31141  -0.30075  -0.29345  -0.29201  -0.28175
 Alpha  occ. eigenvalues --   -0.27822  -0.27786  -0.23352  -0.22470  -0.20574
 Alpha  occ. eigenvalues --   -0.20077  -0.19939  -0.19325  -0.16328
 Alpha virt. eigenvalues --    0.04627   0.10010   0.10668   0.11185   0.11285
 Alpha virt. eigenvalues --    0.11761   0.11973   0.12515   0.12867   0.13657
 Alpha virt. eigenvalues --    0.14012   0.14248   0.14675   0.14984   0.15543
 Alpha virt. eigenvalues --    0.15715   0.16547   0.16753   0.17116   0.17350
 Alpha virt. eigenvalues --    0.17961   0.18432   0.18555   0.18775   0.18961
 Alpha virt. eigenvalues --    0.19774   0.20427   0.20530   0.20852   0.21368
 Alpha virt. eigenvalues --    0.22035   0.22141   0.22843   0.23072   0.23279
 Alpha virt. eigenvalues --    0.24057   0.24240   0.24642   0.25229   0.25628
 Alpha virt. eigenvalues --    0.25665   0.26618   0.26918   0.27383   0.27857
 Alpha virt. eigenvalues --    0.28366   0.28677   0.29155   0.29388   0.30177
 Alpha virt. eigenvalues --    0.30325   0.31076   0.31217   0.31710   0.32304
 Alpha virt. eigenvalues --    0.32679   0.32945   0.33386   0.34091   0.34208
 Alpha virt. eigenvalues --    0.34483   0.34920   0.35069   0.35559   0.35971
 Alpha virt. eigenvalues --    0.36116   0.36574   0.36822   0.37145   0.37202
 Alpha virt. eigenvalues --    0.37649   0.38333   0.38814   0.38933   0.39329
 Alpha virt. eigenvalues --    0.39645   0.39934   0.39995   0.40345   0.40878
 Alpha virt. eigenvalues --    0.41422   0.41844   0.42174   0.42340   0.42385
 Alpha virt. eigenvalues --    0.43526   0.43613   0.43871   0.44328   0.44743
 Alpha virt. eigenvalues --    0.44923   0.45393   0.45663   0.46451   0.46718
 Alpha virt. eigenvalues --    0.46826   0.47560   0.48015   0.48196   0.48991
 Alpha virt. eigenvalues --    0.49160   0.49932   0.50421   0.50911   0.51461
 Alpha virt. eigenvalues --    0.51613   0.52142   0.54123   0.54870   0.55781
 Alpha virt. eigenvalues --    0.56081   0.57525   0.58323   0.58957   0.59247
 Alpha virt. eigenvalues --    0.61007   0.62033   0.62525   0.64653   0.65083
 Alpha virt. eigenvalues --    0.65762   0.66698   0.69793   0.71410   0.72447
 Alpha virt. eigenvalues --    0.75645   0.77841   0.78616   0.79629   0.80424
 Alpha virt. eigenvalues --    0.80967   0.82203   0.82695   0.83567   0.84771
 Alpha virt. eigenvalues --    0.85169   0.85312   0.85963   0.86781   0.88796
 Alpha virt. eigenvalues --    0.89319   0.89553   0.89954   0.90850   0.91746
 Alpha virt. eigenvalues --    0.92184   0.93226   0.94505   0.95619   0.96178
 Alpha virt. eigenvalues --    0.97045   0.97400   0.98373   1.00054   1.01003
 Alpha virt. eigenvalues --    1.02584   1.04642   1.05783   1.06637   1.07831
 Alpha virt. eigenvalues --    1.08103   1.09379   1.10108   1.11119   1.12119
 Alpha virt. eigenvalues --    1.12411   1.13296   1.15358   1.16681   1.17563
 Alpha virt. eigenvalues --    1.18032   1.18263   1.18594   1.20028   1.22303
 Alpha virt. eigenvalues --    1.22791   1.24976   1.25203   1.26364   1.27003
 Alpha virt. eigenvalues --    1.27650   1.28024   1.28903   1.29143   1.31571
 Alpha virt. eigenvalues --    1.32216   1.32963   1.33506   1.35580   1.36433
 Alpha virt. eigenvalues --    1.36633   1.37640   1.37952   1.38538   1.40152
 Alpha virt. eigenvalues --    1.41214   1.42919   1.43963   1.44475   1.45528
 Alpha virt. eigenvalues --    1.46448   1.46909   1.47052   1.49104   1.49415
 Alpha virt. eigenvalues --    1.50686   1.51251   1.52022   1.52359   1.53277
 Alpha virt. eigenvalues --    1.53938   1.55341   1.55756   1.56222   1.56478
 Alpha virt. eigenvalues --    1.56876   1.58733   1.59234   1.59850   1.60850
 Alpha virt. eigenvalues --    1.61556   1.62635   1.63062   1.63855   1.64460
 Alpha virt. eigenvalues --    1.65640   1.66306   1.68404   1.69345   1.70682
 Alpha virt. eigenvalues --    1.75329   1.77255   1.78935   1.80703   1.82588
 Alpha virt. eigenvalues --    1.84702   1.86452   1.88177   1.90329   1.91198
 Alpha virt. eigenvalues --    1.94245   1.94906   1.95290   1.96060   1.97428
 Alpha virt. eigenvalues --    1.98384   1.99299   2.01042   2.01631   2.02987
 Alpha virt. eigenvalues --    2.03764   2.03812   2.05063   2.05700   2.06261
 Alpha virt. eigenvalues --    2.07684   2.08020   2.08967   2.10440   2.11179
 Alpha virt. eigenvalues --    2.12038   2.12293   2.13506   2.14046   2.15919
 Alpha virt. eigenvalues --    2.16716   2.17684   2.18459   2.18749   2.20454
 Alpha virt. eigenvalues --    2.21271   2.22400   2.23545   2.25238   2.26182
 Alpha virt. eigenvalues --    2.26965   2.28334   2.30528   2.31833   2.32343
 Alpha virt. eigenvalues --    2.34102   2.36500   2.36961   2.38184   2.38642
 Alpha virt. eigenvalues --    2.39829   2.41898   2.43503   2.43549   2.46655
 Alpha virt. eigenvalues --    2.49154   2.49897   2.50397   2.51972   2.54261
 Alpha virt. eigenvalues --    2.55435   2.59502   2.60211   2.62178   2.62631
 Alpha virt. eigenvalues --    2.65241   2.65809   2.67949   2.68523   2.72699
 Alpha virt. eigenvalues --    2.73238   2.74234   2.75793   2.76789   2.81091
 Alpha virt. eigenvalues --    2.83763   2.85419   2.86864   2.88066   2.89245
 Alpha virt. eigenvalues --    2.90593   2.92441   2.94523   2.98927   3.01131
 Alpha virt. eigenvalues --    3.06228   3.08779   3.10125   3.15769   3.20182
 Alpha virt. eigenvalues --    3.23060   3.23910   3.27004   3.28985   3.33064
 Alpha virt. eigenvalues --    3.34934   3.40718   3.49054   3.56476   4.26688
 Alpha virt. eigenvalues --    4.33301   4.36527   4.39910   4.41698   4.44744
 Alpha virt. eigenvalues --    4.51328   4.53340   4.54357   4.54981   4.59330
 Alpha virt. eigenvalues --    4.59916   4.62640   4.64533   4.69733   4.73888
 Alpha virt. eigenvalues --    4.78858   4.87607   4.89817   4.90540   5.00299
          Condensed to atoms (all electrons):
               1          2          3          4          5          6
     1  C   15.759361   1.516610  -2.569513  -5.678657  -3.672150   2.258203
     2  C    1.516610  14.598013   0.287120  -4.000281  -2.081612  -4.876311
     3  C   -2.569513   0.287120  18.068510   1.814419  -8.582334  -1.576888
     4  C   -5.678657  -4.000281   1.814419  20.041213  -0.651043  -4.436310
     5  C   -3.672150  -2.081612  -8.582334  -0.651043  19.265957  -0.455890
     6  C    2.258203  -4.876311  -1.576888  -4.436310  -0.455890  15.707772
     7  N    0.019722   0.051044   0.009302   0.184921  -0.170834   0.043168
     8  C   -0.212382   0.121120  -0.945603  -0.667287   0.815638  -0.563692
     9  N    0.006611  -0.020028  -0.161002  -0.158999   0.091021   0.022973
    10  O    0.012810  -0.015398  -0.156730  -0.599358   0.535500   0.121320
    11  C   -0.005822  -0.018594  -0.148344  -0.123273   0.023104  -0.001932
    12  C   -0.000081  -0.000110   0.006190   0.013527   0.006263   0.000974
    13  C    0.000041  -0.000940  -0.006562  -0.006820   0.004558   0.002335
    14  H   -0.001174   0.005582   0.182666   0.090685   0.055814  -0.040688
    15  H   -0.006661  -0.023808   0.016713   0.035390   0.271212   0.010973
    16  H    0.005864   0.012407  -0.101134  -0.009823   0.084494  -0.003462
    17  H   -0.000372   0.000449   0.006440   0.002139  -0.012965  -0.001340
    18  H    0.000018  -0.000127  -0.001265   0.001140   0.002221   0.000296
    19  H   -0.000194   0.000437   0.002190  -0.004254  -0.011780  -0.002586
    20  H    0.000129  -0.000200  -0.001941  -0.004129   0.006913   0.001546
    21  H   -0.000021   0.000111   0.000863  -0.000526  -0.002262  -0.000294
    22  H   -0.000002   0.000003   0.000039   0.000026  -0.000328  -0.000043
    23  H   -0.000000  -0.000000   0.000004   0.000045  -0.000022   0.000001
    24  H    0.000000  -0.000001  -0.000034  -0.000054   0.000135   0.000008
    25  H    0.167609   0.228399  -0.141678   0.004389  -0.003175   0.069302
    26  H    0.205293   0.068618  -0.013961  -0.036318  -0.085649   0.188300
    27  N   -0.612319   0.023239   0.074908   0.022803  -0.029176   0.180551
    28  O   -0.581768   0.116513  -0.031143   0.054786   0.242443   0.095777
    29  O   -0.587060   0.109973   0.222097   0.076531  -0.010677   0.086044
    30  O    0.002343   0.084102   0.274170  -0.361687  -0.009886   0.001920
    31  C   -0.012192  -0.080342  -0.082442   0.181887  -0.032955  -0.001846
    32  O   -0.000480  -0.006826   0.008272  -0.006457  -0.010179   0.001658
    33  C    0.003712   0.036161   0.088126  -0.094566  -0.042654  -0.006456
    34  C    0.003083   0.026741   0.005715  -0.032699  -0.000222  -0.000683
    35  H   -0.000004  -0.000041   0.000659  -0.000764  -0.000093  -0.000001
    36  H   -0.000005  -0.000002   0.000921  -0.000854  -0.000129  -0.000005
    37  H   -0.000107  -0.000504  -0.000405   0.000618   0.000066   0.000005
    38  H   -0.000001  -0.000124  -0.000106   0.000093  -0.000000   0.000002
    39  H   -0.000110  -0.000594  -0.000659   0.000531   0.000079   0.000023
               7          8          9         10         11         12
     1  C    0.019722  -0.212382   0.006611   0.012810  -0.005822  -0.000081
     2  C    0.051044   0.121120  -0.020028  -0.015398  -0.018594  -0.000110
     3  C    0.009302  -0.945603  -0.161002  -0.156730  -0.148344   0.006190
     4  C    0.184921  -0.667287  -0.158999  -0.599358  -0.123273   0.013527
     5  C   -0.170834   0.815638   0.091021   0.535500   0.023104   0.006263
     6  C    0.043168  -0.563692   0.022973   0.121320  -0.001932   0.000974
     7  N    7.891219   0.089388  -0.315609  -0.058127  -0.131897   0.007746
     8  C    0.089388   6.255343   0.462652   0.631422  -0.579836   0.129361
     9  N   -0.315609   0.462652   7.829726  -0.177503   0.042774   0.006800
    10  O   -0.058127   0.631422  -0.177503   8.356355  -0.018193  -0.013801
    11  C   -0.131897  -0.579836   0.042774  -0.018193   6.874857  -0.550454
    12  C    0.007746   0.129361   0.006800  -0.013801  -0.550454   6.373416
    13  C   -0.005310  -0.129871   0.012723  -0.001889   0.109891  -0.269923
    14  H   -0.012298   0.007793   0.000803   0.000052   0.000043  -0.000017
    15  H   -0.016783   0.018695   0.000385  -0.006651   0.001497  -0.000097
    16  H    0.082075  -0.005250   0.010620   0.003261   0.011427  -0.001562
    17  H    0.003052  -0.021056   0.134831   0.003122   0.020519  -0.009198
    18  H   -0.002841   0.007138  -0.058242   0.000432   0.422622  -0.057892
    19  H    0.000037  -0.045992  -0.050062  -0.005185   0.523293  -0.092351
    20  H    0.000188  -0.018848   0.000396  -0.000071  -0.055184   0.412731
    21  H    0.000831   0.004703   0.008812  -0.000357  -0.083467   0.447245
    22  H    0.000040   0.000204  -0.000208   0.000072  -0.013319  -0.055202
    23  H    0.000026  -0.001414   0.000147   0.000071   0.026490  -0.105334
    24  H   -0.000009  -0.003199  -0.002264  -0.000040  -0.001526  -0.098573
    25  H    0.000534   0.002154   0.000013   0.000001   0.000017  -0.000001
    26  H   -0.000468  -0.000029   0.000006   0.000143   0.000002  -0.000002
    27  N   -0.001997   0.000383  -0.000220   0.000064  -0.000017   0.000011
    28  O   -0.000273   0.000292  -0.000005   0.000017  -0.000004  -0.000000
    29  O   -0.000280   0.000792  -0.000002  -0.000004   0.000002   0.000000
    30  O    0.022585   0.014061   0.002313   0.000062  -0.004508  -0.000538
    31  C   -0.012643  -0.011968  -0.012839  -0.000813   0.003762  -0.001796
    32  O    0.012392  -0.013167  -0.029502  -0.000088   0.022404  -0.009809
    33  C   -0.030714  -0.046384  -0.033713  -0.001085   0.033771  -0.001983
    34  C    0.005211   0.004958   0.003402   0.000072  -0.007525   0.001081
    35  H    0.000142  -0.000238  -0.000203  -0.000000   0.000129   0.000012
    36  H    0.000153  -0.000422  -0.000117  -0.000000   0.000075   0.000042
    37  H   -0.000096  -0.000020  -0.000009  -0.000000   0.000005  -0.000000
    38  H    0.000032   0.000007  -0.000004   0.000000   0.000003  -0.000001
    39  H   -0.000100   0.000017  -0.000006  -0.000000   0.000005   0.000002
              13         14         15         16         17         18
     1  C    0.000041  -0.001174  -0.006661   0.005864  -0.000372   0.000018
     2  C   -0.000940   0.005582  -0.023808   0.012407   0.000449  -0.000127
     3  C   -0.006562   0.182666   0.016713  -0.101134   0.006440  -0.001265
     4  C   -0.006820   0.090685   0.035390  -0.009823   0.002139   0.001140
     5  C    0.004558   0.055814   0.271212   0.084494  -0.012965   0.002221
     6  C    0.002335  -0.040688   0.010973  -0.003462  -0.001340   0.000296
     7  N   -0.005310  -0.012298  -0.016783   0.082075   0.003052  -0.002841
     8  C   -0.129871   0.007793   0.018695  -0.005250  -0.021056   0.007138
     9  N    0.012723   0.000803   0.000385   0.010620   0.134831  -0.058242
    10  O   -0.001889   0.000052  -0.006651   0.003261   0.003122   0.000432
    11  C    0.109891   0.000043   0.001497   0.011427   0.020519   0.422622
    12  C   -0.269923  -0.000017  -0.000097  -0.001562  -0.009198  -0.057892
    13  C    5.909076  -0.000002   0.000047   0.000129   0.001883  -0.006650
    14  H   -0.000002   0.424576  -0.000095   0.007399   0.000004  -0.000000
    15  H    0.000047  -0.000095   0.429139  -0.000200   0.000001  -0.000000
    16  H    0.000129   0.007399  -0.000200   0.271530   0.009356  -0.000019
    17  H    0.001883   0.000004   0.000001   0.009356   0.240899  -0.002459
    18  H   -0.006650  -0.000000  -0.000000  -0.000019  -0.002459   0.517644
    19  H   -0.006128   0.000000  -0.000002   0.000017   0.001579  -0.032100
    20  H   -0.018143  -0.000000  -0.000001  -0.000004  -0.000133   0.003962
    21  H   -0.061194   0.000000   0.000000   0.000001   0.000099  -0.005151
    22  H    0.414203   0.000000   0.000000   0.000000  -0.000004  -0.000283
    23  H    0.433362   0.000000   0.000000   0.000000   0.000002  -0.000118
    24  H    0.452241  -0.000000  -0.000000  -0.000000   0.000002   0.002831
    25  H   -0.000000  -0.002989   0.000010  -0.000013   0.000000  -0.000000
    26  H   -0.000000   0.000011  -0.003118   0.000002  -0.000000  -0.000000
    27  N    0.000000  -0.000300   0.000415  -0.000022   0.000000  -0.000000
    28  O   -0.000000   0.000056  -0.000139   0.000001  -0.000000   0.000000
    29  O    0.000000  -0.000051   0.000058   0.000001  -0.000000   0.000000
    30  O   -0.000499  -0.000903  -0.000006   0.101817  -0.000241  -0.000104
    31  C   -0.000490   0.000550   0.000098  -0.012846  -0.004259  -0.000583
    32  O    0.000994  -0.000022   0.000001  -0.002298   0.080219   0.001600
    33  C    0.001976   0.002299   0.000010   0.023650   0.019837   0.001081
    34  C   -0.000191  -0.000351  -0.000001  -0.003107  -0.003314  -0.000034
    35  H    0.000001   0.000000   0.000000  -0.000031  -0.000007  -0.000000
    36  H    0.000013   0.000000   0.000000  -0.000031  -0.000005   0.000000
    37  H    0.000000   0.000015   0.000000  -0.000015  -0.000000   0.000000
    38  H    0.000000  -0.000000  -0.000000  -0.000000   0.000000   0.000000
    39  H    0.000000   0.000025   0.000000  -0.000015  -0.000000  -0.000000
              19         20         21         22         23         24
     1  C   -0.000194   0.000129  -0.000021  -0.000002  -0.000000   0.000000
     2  C    0.000437  -0.000200   0.000111   0.000003  -0.000000  -0.000001
     3  C    0.002190  -0.001941   0.000863   0.000039   0.000004  -0.000034
     4  C   -0.004254  -0.004129  -0.000526   0.000026   0.000045  -0.000054
     5  C   -0.011780   0.006913  -0.002262  -0.000328  -0.000022   0.000135
     6  C   -0.002586   0.001546  -0.000294  -0.000043   0.000001   0.000008
     7  N    0.000037   0.000188   0.000831   0.000040   0.000026  -0.000009
     8  C   -0.045992  -0.018848   0.004703   0.000204  -0.001414  -0.003199
     9  N   -0.050062   0.000396   0.008812  -0.000208   0.000147  -0.002264
    10  O   -0.005185  -0.000071  -0.000357   0.000072   0.000071  -0.000040
    11  C    0.523293  -0.055184  -0.083467  -0.013319   0.026490  -0.001526
    12  C   -0.092351   0.412731   0.447245  -0.055202  -0.105334  -0.098573
    13  C   -0.006128  -0.018143  -0.061194   0.414203   0.433362   0.452241
    14  H    0.000000  -0.000000   0.000000   0.000000   0.000000  -0.000000
    15  H   -0.000002  -0.000001   0.000000   0.000000   0.000000  -0.000000
    16  H    0.000017  -0.000004   0.000001   0.000000   0.000000  -0.000000
    17  H    0.001579  -0.000133   0.000099  -0.000004   0.000002   0.000002
    18  H   -0.032100   0.003962  -0.005151  -0.000283  -0.000118   0.002831
    19  H    0.496337  -0.004863   0.004071   0.003036  -0.000115  -0.000368
    20  H   -0.004863   0.476965  -0.030696  -0.004242  -0.002813   0.003766
    21  H    0.004071  -0.030696   0.507113   0.004005  -0.002766  -0.004490
    22  H    0.003036  -0.004242   0.004005   0.507067  -0.027100  -0.033361
    23  H   -0.000115  -0.002813  -0.002766  -0.027100   0.512236  -0.028303
    24  H   -0.000368   0.003766  -0.004490  -0.033361  -0.028303   0.514225
    25  H    0.000000  -0.000000   0.000000  -0.000000  -0.000000   0.000000
    26  H    0.000000  -0.000000   0.000000   0.000000  -0.000000  -0.000000
    27  N    0.000000  -0.000000   0.000000   0.000000   0.000000  -0.000000
    28  O   -0.000000   0.000000  -0.000000  -0.000000  -0.000000   0.000000
    29  O   -0.000000  -0.000000  -0.000000  -0.000000  -0.000000  -0.000000
    30  O    0.000012  -0.000003   0.000027   0.000000  -0.000000  -0.000000
    31  C    0.000235  -0.000043   0.000530  -0.000012   0.000020  -0.000046
    32  O   -0.000358   0.000108  -0.000247  -0.000002  -0.000003   0.000018
    33  C   -0.000086   0.000033  -0.000030  -0.000003   0.000004   0.000014
    34  C    0.000003   0.000000  -0.000002  -0.000000   0.000000   0.000000
    35  H   -0.000000  -0.000000  -0.000000   0.000000  -0.000000  -0.000000
    36  H   -0.000000   0.000000   0.000000  -0.000000  -0.000000   0.000000
    37  H    0.000000   0.000000   0.000000  -0.000000  -0.000000  -0.000000
    38  H   -0.000000  -0.000000  -0.000000   0.000000  -0.000000   0.000000
    39  H   -0.000000  -0.000000  -0.000000  -0.000000   0.000000  -0.000000
              25         26         27         28         29         30
     1  C    0.167609   0.205293  -0.612319  -0.581768  -0.587060   0.002343
     2  C    0.228399   0.068618   0.023239   0.116513   0.109973   0.084102
     3  C   -0.141678  -0.013961   0.074908  -0.031143   0.222097   0.274170
     4  C    0.004389  -0.036318   0.022803   0.054786   0.076531  -0.361687
     5  C   -0.003175  -0.085649  -0.029176   0.242443  -0.010677  -0.009886
     6  C    0.069302   0.188300   0.180551   0.095777   0.086044   0.001920
     7  N    0.000534  -0.000468  -0.001997  -0.000273  -0.000280   0.022585
     8  C    0.002154  -0.000029   0.000383   0.000292   0.000792   0.014061
     9  N    0.000013   0.000006  -0.000220  -0.000005  -0.000002   0.002313
    10  O    0.000001   0.000143   0.000064   0.000017  -0.000004   0.000062
    11  C    0.000017   0.000002  -0.000017  -0.000004   0.000002  -0.004508
    12  C   -0.000001  -0.000002   0.000011  -0.000000   0.000000  -0.000538
    13  C   -0.000000  -0.000000   0.000000  -0.000000   0.000000  -0.000499
    14  H   -0.002989   0.000011  -0.000300   0.000056  -0.000051  -0.000903
    15  H    0.000010  -0.003118   0.000415  -0.000139   0.000058  -0.000006
    16  H   -0.000013   0.000002  -0.000022   0.000001   0.000001   0.101817
    17  H    0.000000  -0.000000   0.000000  -0.000000  -0.000000  -0.000241
    18  H   -0.000000  -0.000000  -0.000000   0.000000   0.000000  -0.000104
    19  H    0.000000   0.000000   0.000000  -0.000000  -0.000000   0.000012
    20  H   -0.000000  -0.000000  -0.000000   0.000000  -0.000000  -0.000003
    21  H    0.000000   0.000000   0.000000  -0.000000  -0.000000   0.000027
    22  H   -0.000000   0.000000   0.000000  -0.000000  -0.000000   0.000000
    23  H   -0.000000  -0.000000   0.000000  -0.000000  -0.000000  -0.000000
    24  H    0.000000  -0.000000  -0.000000   0.000000  -0.000000  -0.000000
    25  H    0.459799  -0.000121  -0.039705  -0.002358   0.017163   0.000011
    26  H   -0.000121   0.464034  -0.039857   0.017449  -0.002443   0.000001
    27  N   -0.039705  -0.039857   7.018274   0.363581   0.370053   0.000078
    28  O   -0.002358   0.017449   0.363581   7.880240  -0.082529  -0.000000
    29  O    0.017163  -0.002443   0.370053  -0.082529   7.879762   0.000011
    30  O    0.000011   0.000001   0.000078  -0.000000   0.000011   8.547097
    31  C   -0.000016   0.000001   0.000052   0.000006   0.000009   0.203882
    32  O    0.000000  -0.000000   0.000001  -0.000000   0.000000  -0.169784
    33  C    0.000024  -0.000001  -0.000042  -0.000001  -0.000003  -0.087147
    34  C   -0.000026   0.000000   0.000022   0.000002  -0.000008   0.060060
    35  H   -0.000000   0.000000   0.000000   0.000000  -0.000000   0.001713
    36  H   -0.000000   0.000000   0.000000   0.000000  -0.000000   0.001753
    37  H   -0.000000  -0.000000   0.000000  -0.000000  -0.000000  -0.004844
    38  H    0.000000   0.000000  -0.000000  -0.000000   0.000000   0.001893
    39  H   -0.000000  -0.000000   0.000000  -0.000000  -0.000000  -0.004911
              31         32         33         34         35         36
     1  C   -0.012192  -0.000480   0.003712   0.003083  -0.000004  -0.000005
     2  C   -0.080342  -0.006826   0.036161   0.026741  -0.000041  -0.000002
     3  C   -0.082442   0.008272   0.088126   0.005715   0.000659   0.000921
     4  C    0.181887  -0.006457  -0.094566  -0.032699  -0.000764  -0.000854
     5  C   -0.032955  -0.010179  -0.042654  -0.000222  -0.000093  -0.000129
     6  C   -0.001846   0.001658  -0.006456  -0.000683  -0.000001  -0.000005
     7  N   -0.012643   0.012392  -0.030714   0.005211   0.000142   0.000153
     8  C   -0.011968  -0.013167  -0.046384   0.004958  -0.000238  -0.000422
     9  N   -0.012839  -0.029502  -0.033713   0.003402  -0.000203  -0.000117
    10  O   -0.000813  -0.000088  -0.001085   0.000072  -0.000000  -0.000000
    11  C    0.003762   0.022404   0.033771  -0.007525   0.000129   0.000075
    12  C   -0.001796  -0.009809  -0.001983   0.001081   0.000012   0.000042
    13  C   -0.000490   0.000994   0.001976  -0.000191   0.000001   0.000013
    14  H    0.000550  -0.000022   0.002299  -0.000351   0.000000   0.000000
    15  H    0.000098   0.000001   0.000010  -0.000001   0.000000   0.000000
    16  H   -0.012846  -0.002298   0.023650  -0.003107  -0.000031  -0.000031
    17  H   -0.004259   0.080219   0.019837  -0.003314  -0.000007  -0.000005
    18  H   -0.000583   0.001600   0.001081  -0.000034  -0.000000   0.000000
    19  H    0.000235  -0.000358  -0.000086   0.000003  -0.000000  -0.000000
    20  H   -0.000043   0.000108   0.000033   0.000000  -0.000000   0.000000
    21  H    0.000530  -0.000247  -0.000030  -0.000002  -0.000000   0.000000
    22  H   -0.000012  -0.000002  -0.000003  -0.000000   0.000000  -0.000000
    23  H    0.000020  -0.000003   0.000004   0.000000  -0.000000  -0.000000
    24  H   -0.000046   0.000018   0.000014   0.000000  -0.000000   0.000000
    25  H   -0.000016   0.000000   0.000024  -0.000026  -0.000000  -0.000000
    26  H    0.000001  -0.000000  -0.000001   0.000000   0.000000   0.000000
    27  N    0.000052   0.000001  -0.000042   0.000022   0.000000   0.000000
    28  O    0.000006  -0.000000  -0.000001   0.000002   0.000000   0.000000
    29  O    0.000009   0.000000  -0.000003  -0.000008  -0.000000  -0.000000
    30  O    0.203882  -0.169784  -0.087147   0.060060   0.001713   0.001753
    31  C    5.815440   0.580448  -1.096012   0.024625  -0.085100  -0.080576
    32  O    0.580448   8.453808  -0.318680   0.037344  -0.002417  -0.002637
    33  C   -1.096012  -0.318680   7.743546  -0.391049   0.453910   0.451827
    34  C    0.024625   0.037344  -0.391049   5.854215  -0.049234  -0.051639
    35  H   -0.085100  -0.002417   0.453910  -0.049234   0.503273  -0.029908
    36  H   -0.080576  -0.002637   0.451827  -0.051639  -0.029908   0.503207
    37  H   -0.006981   0.000124  -0.054787   0.418769  -0.003917   0.003695
    38  H    0.034870  -0.000159  -0.081230   0.385370  -0.002059  -0.002062
    39  H   -0.006215   0.000090  -0.058117   0.422090   0.003691  -0.003892
              37         38         39
     1  C   -0.000107  -0.000001  -0.000110
     2  C   -0.000504  -0.000124  -0.000594
     3  C   -0.000405  -0.000106  -0.000659
     4  C    0.000618   0.000093   0.000531
     5  C    0.000066  -0.000000   0.000079
     6  C    0.000005   0.000002   0.000023
     7  N   -0.000096   0.000032  -0.000100
     8  C   -0.000020   0.000007   0.000017
     9  N   -0.000009  -0.000004  -0.000006
    10  O   -0.000000   0.000000  -0.000000
    11  C    0.000005   0.000003   0.000005
    12  C   -0.000000  -0.000001   0.000002
    13  C    0.000000   0.000000   0.000000
    14  H    0.000015  -0.000000   0.000025
    15  H    0.000000  -0.000000   0.000000
    16  H   -0.000015  -0.000000  -0.000015
    17  H   -0.000000   0.000000  -0.000000
    18  H    0.000000   0.000000  -0.000000
    19  H    0.000000  -0.000000  -0.000000
    20  H    0.000000  -0.000000  -0.000000
    21  H    0.000000  -0.000000  -0.000000
    22  H   -0.000000   0.000000  -0.000000
    23  H   -0.000000  -0.000000   0.000000
    24  H   -0.000000   0.000000  -0.000000
    25  H   -0.000000   0.000000  -0.000000
    26  H   -0.000000   0.000000  -0.000000
    27  N    0.000000  -0.000000   0.000000
    28  O   -0.000000  -0.000000  -0.000000
    29  O   -0.000000   0.000000  -0.000000
    30  O   -0.004844   0.001893  -0.004911
    31  C   -0.006981   0.034870  -0.006215
    32  O    0.000124  -0.000159   0.000090
    33  C   -0.054787  -0.081230  -0.058117
    34  C    0.418769   0.385370   0.422090
    35  H   -0.003917  -0.002059   0.003691
    36  H    0.003695  -0.002062  -0.003892
    37  H    0.489158  -0.029864  -0.027106
    38  H   -0.029864   0.549383  -0.029816
    39  H   -0.027106  -0.029816   0.487919
 Mulliken charges:
               1
     1  C   -0.020337
     2  C   -0.160799
     3  C   -0.547582
     4  C    0.349015
     5  C    0.460599
     6  C   -0.824721
     7  N   -0.663528
     8  C    0.700539
     9  N   -0.616471
    10  O   -0.609485
    11  C   -0.372797
    12  C   -0.136678
    13  C   -0.828861
    14  H    0.280519
    15  H    0.272918
    16  H    0.515781
    17  H    0.530920
    18  H    0.206885
    19  H    0.225176
    20  H    0.234576
    21  H    0.213092
    22  H    0.205416
    23  H    0.195581
    24  H    0.199029
    25  H    0.240658
    26  H    0.238105
    27  N   -0.330779
    28  O   -0.072940
    29  O   -0.079438
    30  O   -0.674848
    31  C    0.696601
    32  O   -0.626364
    33  C   -0.515237
    34  C   -0.712677
    35  H    0.210489
    36  H    0.210598
    37  H    0.216202
    38  H    0.173771
    39  H    0.217071
 Sum of Mulliken charges =  -1.00000
 Mulliken charges with hydrogens summed into heavy atoms:
               1
     1  C   -0.020337
     2  C    0.079859
     3  C   -0.267063
     4  C    0.349015
     5  C    0.733517
     6  C   -0.586616
     7  N   -0.147746
     8  C    0.700539
     9  N   -0.085551
    10  O   -0.609485
    11  C    0.059264
    12  C    0.310990
    13  C   -0.228836
    27  N   -0.330779
    28  O   -0.072940
    29  O   -0.079438
    30  O   -0.674848
    31  C    0.696601
    32  O   -0.626364
    33  C   -0.094150
    34  C   -0.105633
         Mulliken charges condensed to fragments:
      1     -0.195606
      2     -0.804394
 Electronic spatial extent (au):  <R**2>=           9804.9665
 Charge=             -1.0000 electrons
 Dipole moment (field-independent basis, Debye):
    X=              2.8887    Y=             -1.0067    Z=              0.4103  Tot=              3.0865
 Quadrupole moment (field-independent basis, Debye-Ang):
   XX=           -210.7221   YY=           -153.9101   ZZ=           -130.4214
   XY=             -9.3002   XZ=              2.8478   YZ=             -1.1098
 Traceless Quadrupole moment (field-independent basis, Debye-Ang):
   XX=            -45.7042   YY=             11.1077   ZZ=             34.5965
   XY=             -9.3002   XZ=              2.8478   YZ=             -1.1098
 Octapole moment (field-independent basis, Debye-Ang**2):
  XXX=            313.4215  YYY=             -9.9789  ZZZ=              0.7923  XYY=            -35.4040
  XXY=             -3.0027  XXZ=            -16.2336  XZZ=             -5.3182  YZZ=              2.6904
  YYZ=              2.6750  XYZ=              1.3558
 Hexadecapole moment (field-independent basis, Debye-Ang**3):
 XXXX=         -11719.2914 YYYY=          -4635.2058 ZZZZ=           -264.1617 XXXY=           -162.0862
 XXXZ=             74.0936 YYYX=             39.5274 YYYZ=            -12.4147 ZZZX=            -12.2599
 ZZZY=             -0.3954 XXYY=          -2372.9052 XXZZ=          -1482.6093 YYZZ=           -761.7707
 XXYZ=             11.8370 YYXZ=             -2.6348 ZZXY=             11.8777
 N-N= 1.630262222136D+03 E-N=-5.719606018392D+03  KE= 1.037481483833D+03
 CPIOFr:  IOpCl= 0 IRwI=-1 IRwCP=  731 ICalc= -1 LCPTot=      296755 Len1MO=      765188 IndFrg=      296755
 CPIOFr:  IOpCl= 0 IRwI=-1 IRwCP=  731 ICalc=  0 LCPTot=      296755 Len1MO=      765188 IndFrg=     1061943
 Counterpoise: doing DCBS calculation for fragment   1 NewBq=T
 Basis read from rwf:  (6D, 7F)
 There are   435 symmetry adapted cartesian basis functions of A   symmetry.
 There are   435 symmetry adapted basis functions of A   symmetry.
   435 basis functions,   744 primitive gaussians,   435 cartesian basis functions
    59 alpha electrons       59 beta electrons
       nuclear repulsion energy      1035.8725809274 Hartrees.
 NAtoms=   39 NActive=   39 NUniq=   39 SFac= 1.00D+00 NAtFMM=   60 NAOKFM=F Big=F
 Integral buffers will be    131072 words long.
 Raffenetti 2 integral format.
 Two-electron integral symmetry is turned on.
 One-electron integrals computed using PRISM.
 NBasis=   435 RedAO= T EigKep=  1.24D-06  NBF=   435
 NBsUse=   434 1.00D-06 EigRej=  8.49D-07 NBFU=   434
 ExpMin= 4.38D-02 ExpMax= 5.48D+03 ExpMxC= 8.25D+02 IAcc=3 IRadAn=         5 AccDes= 0.00D+00
 Harris functional with IExCor= 1009 and IRadAn=       5 diagonalized for initial guess.
 HarFok:  IExCor= 1009 AccDes= 0.00D+00 IRadAn=         5 IDoV= 1 UseB2=F ITyADJ=14
 ICtDFT=  3500011 ScaDFX=  1.000000  1.000000  1.000000  1.000000
 FoFCou: FMM=F IPFlag=           0 FMFlag=      100000 FMFlg1=           0
         NFxFlg=           0 DoJE=T BraDBF=F KetDBF=T FulRan=T
         wScrn=  0.000000 ICntrl=     500 IOpCl=  0 I1Cent=   200000004 NGrid=           0
         NMat0=    1 NMatS0=      1 NMatT0=    0 NMatD0=    1 NMtDS0=    0 NMtDT0=    0
 Petite list used in FoFCou.
 Requested convergence on RMS density matrix=1.00D-08 within 128 cycles.
 Requested convergence on MAX density matrix=1.00D-06.
 Requested convergence on             energy=1.00D-06.
 No special actions if energy rises.
 SCF Done:  E(RM062X) =  -778.447905751     A.U. after   15 cycles
            NFock= 15  Conv=0.55D-08     -V/T= 2.0086

 **********************************************************************

            Population analysis using the SCF density.

 **********************************************************************

 Orbital symmetries:
       Occupied  (A) (A) (A) (A) (A) (A) (A) (A) (A) (A) (A) (A)
                 (A) (A) (A) (A) (A) (A) (A) (A) (A) (A) (A) (A)
                 (A) (A) (A) (A) (A) (A) (A) (A) (A) (A) (A) (A)
                 (A) (A) (A) (A) (A) (A) (A) (A) (A) (A) (A) (A)
                 (A) (A) (A) (A) (A) (A) (A) (A) (A) (A) (A)
       Virtual   (A) (A) (A) (A) (A) (A) (A) (A) (A) (A) (A) (A)
                 (A) (A) (A) (A) (A) (A) (A) (A) (A) (A) (A) (A)
                 (A) (A) (A) (A) (A) (A) (A) (A) (A) (A) (A) (A)
                 (A) (A) (A) (A) (A) (A) (A) (A) (A) (A) (A) (A)
                 (A) (A) (A) (A) (A) (A) (A) (A) (A) (A) (A) (A)
                 (A) (A) (A) (A) (A) (A) (A) (A) (A) (A) (A) (A)
                 (A) (A) (A) (A) (A) (A) (A) (A) (A) (A) (A) (A)
                 (A) (A) (A) (A) (A) (A) (A) (A) (A) (A) (A) (A)
                 (A) (A) (A) (A) (A) (A) (A) (A) (A) (A) (A) (A)
                 (A) (A) (A) (A) (A) (A) (A) (A) (A) (A) (A) (A)
                 (A) (A) (A) (A) (A) (A) (A) (A) (A) (A) (A) (A)
                 (A) (A) (A) (A) (A) (A) (A) (A) (A) (A) (A) (A)
                 (A) (A) (A) (A) (A) (A) (A) (A) (A) (A) (A) (A)
                 (A) (A) (A) (A) (A) (A) (A) (A) (A) (A) (A) (A)
                 (A) (A) (A) (A) (A) (A) (A) (A) (A) (A) (A) (A)
                 (A) (A) (A) (A) (A) (A) (A) (A) (A) (A) (A) (A)
                 (A) (A) (A) (A) (A) (A) (A) (A) (A) (A) (A) (A)
                 (A) (A) (A) (A) (A) (A) (A) (A) (A) (A) (A) (A)
                 (A) (A) (A) (A) (A) (A) (A) (A) (A) (A) (A) (A)
                 (A) (A) (A) (A) (A) (A) (A) (A) (A) (A) (A) (A)
                 (A) (A) (A) (A) (A) (A) (A) (A) (A) (A) (A) (A)
                 (A) (A) (A) (A) (A) (A) (A) (A) (A) (A) (A) (A)
                 (A) (A) (A) (A) (A) (A) (A) (A) (A) (A) (A) (A)
                 (A) (A) (A) (A) (A) (A) (A) (A) (A) (A) (A) (A)
                 (A) (A) (A) (A) (A) (A) (A) (A) (A) (A) (A) (A)
                 (A) (A) (A) (A) (A) (A) (A) (A) (A) (A) (A) (A)
                 (A) (A) (A) (A) (A) (A) (A) (A) (A) (A) (A) (A)
                 (A) (A) (A) (A) (A) (A) (A) (A) (A) (A) (A) (A)
                 (A) (A) (A) (A) (A) (A) (A) (A) (A) (A) (A) (A)
                 (A) (A) (A) (A) (A) (A) (A) (A) (A) (A) (A) (A)
                 (A) (A) (A) (A) (A) (A) (A) (A) (A) (A) (A) (A)
                 (A) (A) (A)
 The electronic state is 1-A.
 Alpha  occ. eigenvalues --  -19.67561 -19.67553 -19.63352 -15.00946 -14.83511
 Alpha  occ. eigenvalues --  -14.81671 -10.71111 -10.63728 -10.61283 -10.60047
 Alpha  occ. eigenvalues --  -10.58904 -10.58485 -10.58450 -10.57161 -10.55610
 Alpha  occ. eigenvalues --  -10.54871  -1.35911  -1.19791  -1.17053  -1.08897
 Alpha  occ. eigenvalues --   -1.05817  -0.99347  -0.91347  -0.89033  -0.87632
 Alpha  occ. eigenvalues --   -0.82246  -0.77917  -0.74111  -0.71669  -0.68948
 Alpha  occ. eigenvalues --   -0.68695  -0.66265  -0.64910  -0.63351  -0.61798
 Alpha  occ. eigenvalues --   -0.59484  -0.56587  -0.55449  -0.55237  -0.53921
 Alpha  occ. eigenvalues --   -0.53574  -0.52277  -0.51020  -0.50232  -0.49210
 Alpha  occ. eigenvalues --   -0.47346  -0.46306  -0.44387  -0.43392  -0.42576
 Alpha  occ. eigenvalues --   -0.41084  -0.40126  -0.38872  -0.37187  -0.37115
 Alpha  occ. eigenvalues --   -0.36478  -0.34163  -0.33545  -0.29274
 Alpha virt. eigenvalues --   -0.05365  -0.03164  -0.00198   0.00494   0.01513
 Alpha virt. eigenvalues --    0.02011   0.02492   0.03152   0.03171   0.03887
 Alpha virt. eigenvalues --    0.04142   0.04558   0.04863   0.05724   0.06079
 Alpha virt. eigenvalues --    0.06657   0.06976   0.07380   0.07650   0.07871
 Alpha virt. eigenvalues --    0.08101   0.08511   0.09310   0.09548   0.09647
 Alpha virt. eigenvalues --    0.10030   0.10555   0.10768   0.11355   0.12441
 Alpha virt. eigenvalues --    0.12805   0.12833   0.13153   0.13266   0.13867
 Alpha virt. eigenvalues --    0.14223   0.14396   0.15082   0.15306   0.15734
 Alpha virt. eigenvalues --    0.16069   0.17097   0.17169   0.17501   0.17949
 Alpha virt. eigenvalues --    0.18388   0.18665   0.18745   0.18770   0.19209
 Alpha virt. eigenvalues --    0.19843   0.20265   0.20778   0.21247   0.21423
 Alpha virt. eigenvalues --    0.21732   0.22449   0.22612   0.22893   0.23194
 Alpha virt. eigenvalues --    0.23601   0.24063   0.24221   0.24680   0.24833
 Alpha virt. eigenvalues --    0.25761   0.26033   0.26394   0.26875   0.26962
 Alpha virt. eigenvalues --    0.27187   0.27867   0.28273   0.28553   0.28805
 Alpha virt. eigenvalues --    0.29277   0.29598   0.29969   0.30306   0.30640
 Alpha virt. eigenvalues --    0.30933   0.31179   0.31785   0.32117   0.33092
 Alpha virt. eigenvalues --    0.33382   0.33834   0.34316   0.34695   0.34945
 Alpha virt. eigenvalues --    0.35074   0.35890   0.36196   0.36798   0.37167
 Alpha virt. eigenvalues --    0.37697   0.38018   0.38374   0.38964   0.39188
 Alpha virt. eigenvalues --    0.39379   0.40155   0.40879   0.41800   0.42576
 Alpha virt. eigenvalues --    0.43108   0.43571   0.44878   0.45422   0.46444
 Alpha virt. eigenvalues --    0.47804   0.48473   0.48975   0.49377   0.50578
 Alpha virt. eigenvalues --    0.52235   0.53450   0.54527   0.54741   0.56452
 Alpha virt. eigenvalues --    0.57229   0.58806   0.59867   0.60298   0.63072
 Alpha virt. eigenvalues --    0.63668   0.65801   0.67541   0.68165   0.69324
 Alpha virt. eigenvalues --    0.69697   0.70497   0.71315   0.71974   0.72840
 Alpha virt. eigenvalues --    0.73246   0.73853   0.74136   0.74742   0.75069
 Alpha virt. eigenvalues --    0.76490   0.77379   0.77593   0.78560   0.78666
 Alpha virt. eigenvalues --    0.79168   0.80823   0.81193   0.82035   0.82642
 Alpha virt. eigenvalues --    0.83692   0.84386   0.86235   0.86648   0.86903
 Alpha virt. eigenvalues --    0.88098   0.89116   0.90456   0.91775   0.92863
 Alpha virt. eigenvalues --    0.93504   0.94544   0.96348   0.96830   0.98545
 Alpha virt. eigenvalues --    1.00360   1.01571   1.02121   1.02710   1.03999
 Alpha virt. eigenvalues --    1.04151   1.04459   1.05666   1.06639   1.07816
 Alpha virt. eigenvalues --    1.09930   1.11709   1.13606   1.14882   1.15856
 Alpha virt. eigenvalues --    1.15997   1.17654   1.18332   1.20182   1.20357
 Alpha virt. eigenvalues --    1.21425   1.22127   1.22843   1.25390   1.25789
 Alpha virt. eigenvalues --    1.26372   1.26996   1.27200   1.28286   1.29931
 Alpha virt. eigenvalues --    1.30816   1.31587   1.32641   1.35549   1.36911
 Alpha virt. eigenvalues --    1.37145   1.37511   1.38061   1.38763   1.39309
 Alpha virt. eigenvalues --    1.42227   1.43175   1.44291   1.45079   1.45999
 Alpha virt. eigenvalues --    1.46532   1.47634   1.47899   1.49182   1.49995
 Alpha virt. eigenvalues --    1.51799   1.52510   1.53087   1.53313   1.55827
 Alpha virt. eigenvalues --    1.57236   1.61457   1.66246   1.68031   1.69756
 Alpha virt. eigenvalues --    1.76637   1.77376   1.78572   1.82447   1.82814
 Alpha virt. eigenvalues --    1.85421   1.85760   1.87001   1.87771   1.90131
 Alpha virt. eigenvalues --    1.91425   1.91966   1.92896   1.93685   1.93882
 Alpha virt. eigenvalues --    1.95046   1.98700   1.98765   1.99518   2.00563
 Alpha virt. eigenvalues --    2.01536   2.01584   2.02603   2.03762   2.04517
 Alpha virt. eigenvalues --    2.06574   2.06848   2.07613   2.08838   2.11342
 Alpha virt. eigenvalues --    2.12811   2.14062   2.14568   2.15391   2.16872
 Alpha virt. eigenvalues --    2.18946   2.19353   2.20283   2.21221   2.22054
 Alpha virt. eigenvalues --    2.23398   2.25616   2.26339   2.26930   2.28704
 Alpha virt. eigenvalues --    2.30047   2.32066   2.34755   2.36646   2.36811
 Alpha virt. eigenvalues --    2.38558   2.39512   2.39622   2.40996   2.43203
 Alpha virt. eigenvalues --    2.46300   2.48651   2.49168   2.50563   2.52891
 Alpha virt. eigenvalues --    2.56474   2.58461   2.58708   2.59917   2.61564
 Alpha virt. eigenvalues --    2.62607   2.63688   2.64047   2.65938   2.67525
 Alpha virt. eigenvalues --    2.69112   2.71263   2.71563   2.72981   2.75335
 Alpha virt. eigenvalues --    2.75822   2.77530   2.78608   2.80154   2.80463
 Alpha virt. eigenvalues --    2.82500   2.83717   2.85400   2.86467   2.87657
 Alpha virt. eigenvalues --    2.89799   2.95491   2.95824   2.97241   3.01672
 Alpha virt. eigenvalues --    3.03630   3.05157   3.06377   3.10435   3.11008
 Alpha virt. eigenvalues --    3.14060   3.16137   3.17441   3.21865   3.22313
 Alpha virt. eigenvalues --    3.24207   3.27571   3.31597   3.34038   3.36782
 Alpha virt. eigenvalues --    3.44599   3.52220   3.55146   3.63519   3.69891
 Alpha virt. eigenvalues --    3.76093   3.76980   3.84827   3.86342   4.04174
 Alpha virt. eigenvalues --    4.15490   4.17082   4.22004   4.26591   4.28913
 Alpha virt. eigenvalues --    4.30711   4.32768   4.40264   4.41482   4.43188
 Alpha virt. eigenvalues --    4.44295   4.47304   4.50286   4.53014   4.55122
 Alpha virt. eigenvalues --    4.56447   4.61846   4.64466   4.72859   4.78109
 Alpha virt. eigenvalues --    4.79031   4.81310   4.85973   5.19940   5.21115
 Alpha virt. eigenvalues --    5.25827   5.57580   5.68908   6.44849   6.49913
 Alpha virt. eigenvalues --   23.86806  24.10214  24.29814  38.22044  38.82191
          Condensed to atoms (all electrons):
               1          2          3          4          5          6
     1  C   15.866339   1.088892  -2.314196  -5.242892  -3.574840   1.847850
     2  C    1.088892  12.857938   0.748207  -2.782319  -1.701497  -4.631210
     3  C   -2.314196   0.748207  15.845247   1.909296  -7.224416  -1.114181
     4  C   -5.242892  -2.782319   1.909296  17.285287  -0.357856  -3.659574
     5  C   -3.574840  -1.701497  -7.224416  -0.357856  16.697847  -0.560528
     6  C    1.847850  -4.631210  -1.114181  -3.659574  -0.560528  14.497646
     7  N    0.009760   0.030637   0.085933   0.255416  -0.279848   0.035137
     8  C   -0.165619  -0.001057  -1.171400  -0.686360   1.040442  -0.376413
     9  N    0.009561  -0.023096  -0.229901  -0.224735   0.198124   0.025532
    10  O    0.013520  -0.014175  -0.158189  -0.622284   0.554333   0.122796
    11  C   -0.000430  -0.019665  -0.211003  -0.186478   0.152194   0.008906
    12  C   -0.000667   0.000352   0.011029   0.016976  -0.008767  -0.000719
    13  C    0.000138  -0.000664  -0.007004  -0.013109   0.009967   0.001923
    14  H    0.000248   0.007140   0.036587   0.168549   0.117664  -0.047669
    15  H   -0.006781  -0.026232   0.022135   0.044880   0.247110   0.030143
    16  H   -0.001111  -0.033489  -0.251513   0.100174   0.158124   0.004426
    17  H   -0.000308   0.000256  -0.006144  -0.000223   0.002017  -0.000949
    18  H    0.000015  -0.000088  -0.001003   0.000668   0.002076   0.000191
    19  H   -0.000131   0.000287   0.002135  -0.001683  -0.009366  -0.001582
    20  H    0.000139  -0.000214  -0.002390  -0.006072   0.008739   0.001562
    21  H   -0.000022   0.000127   0.001322  -0.000014  -0.002868  -0.000309
    22  H   -0.000002   0.000004   0.000056   0.000087  -0.000464  -0.000057
    23  H   -0.000000  -0.000000   0.000003   0.000014  -0.000042  -0.000001
    24  H    0.000000  -0.000002  -0.000038  -0.000041   0.000173   0.000011
    25  H    0.168242   0.210975  -0.125700   0.008095  -0.004830   0.069089
    26  H    0.200976   0.069571  -0.019086  -0.039566  -0.058258   0.172994
    27  N   -0.604402   0.011967   0.067650   0.004232  -0.044523   0.183568
    28  O   -0.613079   0.084610  -0.030732   0.057498   0.239802   0.169252
    29  O   -0.629379   0.179499   0.230497   0.084060  -0.003990   0.045223
    30  O   -0.011056  -0.053412  -0.077865   0.092881   0.049698   0.005223
    31  C   -0.005578  -0.013498   0.012320   0.014836  -0.014633  -0.002720
    32  O    0.000035  -0.002049  -0.009502   0.002806   0.009137   0.000797
    33  C   -0.000030   0.003772  -0.013460   0.007419  -0.003657  -0.002011
    34  C    0.002140   0.010443  -0.001628  -0.012459  -0.000201   0.000351
    35  H    0.000000   0.000012   0.000014  -0.000028  -0.000002  -0.000000
    36  H    0.000001   0.000014   0.000025  -0.000038  -0.000004   0.000000
    37  H   -0.000024  -0.000282  -0.000150   0.000428   0.000032  -0.000001
    38  H   -0.000002  -0.000026  -0.000026   0.000046   0.000002  -0.000000
    39  H   -0.000026  -0.000277  -0.000178   0.000448   0.000036  -0.000002
               7          8          9         10         11         12
     1  C    0.009760  -0.165619   0.009561   0.013520  -0.000430  -0.000667
     2  C    0.030637  -0.001057  -0.023096  -0.014175  -0.019665   0.000352
     3  C    0.085933  -1.171400  -0.229901  -0.158189  -0.211003   0.011029
     4  C    0.255416  -0.686360  -0.224735  -0.622284  -0.186478   0.016976
     5  C   -0.279848   1.040442   0.198124   0.554333   0.152194  -0.008767
     6  C    0.035137  -0.376413   0.025532   0.122796   0.008906  -0.000719
     7  N    7.775048   0.067636  -0.379106  -0.044875  -0.141163  -0.000510
     8  C    0.067636   6.107216   0.380452   0.657289  -0.456337   0.055958
     9  N   -0.379106   0.380452   7.699790  -0.159023   0.153522  -0.023621
    10  O   -0.044875   0.657289  -0.159023   8.228786  -0.016147  -0.014705
    11  C   -0.141163  -0.456337   0.153522  -0.016147   6.584891  -0.355932
    12  C   -0.000510   0.055958  -0.023621  -0.014705  -0.355932   6.134109
    13  C   -0.003594  -0.092758   0.009328   0.001061   0.043992  -0.119950
    14  H   -0.023887   0.011865   0.001668   0.000023   0.000347  -0.000038
    15  H   -0.018115   0.011543   0.000077  -0.004277   0.000849   0.000017
    16  H    0.147049  -0.004341   0.035024   0.003380   0.015348  -0.000673
    17  H    0.017182  -0.014042   0.207956   0.002446   0.000182  -0.005857
    18  H   -0.000808   0.031115  -0.048902   0.001556   0.373500  -0.039317
    19  H   -0.000073  -0.044061  -0.045012  -0.008198   0.518070  -0.095892
    20  H   -0.000061  -0.009351  -0.001345   0.001731  -0.071453   0.419684
    21  H    0.001061   0.000913   0.011044  -0.000768  -0.063028   0.407697
    22  H    0.000024  -0.002942  -0.000682  -0.000021  -0.001196  -0.071908
    23  H    0.000019  -0.002621   0.000264   0.000060   0.025016  -0.094527
    24  H   -0.000010   0.000306  -0.001874  -0.000017  -0.011449  -0.075259
    25  H    0.000444   0.001950   0.000006   0.000002   0.000013  -0.000001
    26  H   -0.000257   0.001086   0.000013   0.000083   0.000015  -0.000003
    27  N   -0.001890  -0.000413  -0.000242   0.000092  -0.000040   0.000012
    28  O   -0.000269   0.000042  -0.000005   0.000014  -0.000004  -0.000000
    29  O   -0.000256   0.001006  -0.000001  -0.000005   0.000003   0.000001
    30  O    0.026785   0.005948   0.007985   0.000189   0.006990  -0.001052
    31  C   -0.011929  -0.011023  -0.015621   0.000903  -0.002204   0.001739
    32  O    0.001968   0.010234   0.022442   0.000216  -0.004749  -0.000281
    33  C   -0.007293  -0.016503  -0.008577  -0.000138   0.001449   0.000985
    34  C   -0.000240   0.000643  -0.000249   0.000008  -0.000760   0.000085
    35  H   -0.000003  -0.000017   0.000002  -0.000000  -0.000001   0.000001
    36  H   -0.000000  -0.000013  -0.000004  -0.000000  -0.000005   0.000001
    37  H   -0.000023   0.000004   0.000002  -0.000000   0.000004  -0.000000
    38  H   -0.000003   0.000001   0.000001   0.000000   0.000001  -0.000000
    39  H   -0.000027   0.000008   0.000004  -0.000000   0.000004  -0.000000
              13         14         15         16         17         18
     1  C    0.000138   0.000248  -0.006781  -0.001111  -0.000308   0.000015
     2  C   -0.000664   0.007140  -0.026232  -0.033489   0.000256  -0.000088
     3  C   -0.007004   0.036587   0.022135  -0.251513  -0.006144  -0.001003
     4  C   -0.013109   0.168549   0.044880   0.100174  -0.000223   0.000668
     5  C    0.009967   0.117664   0.247110   0.158124   0.002017   0.002076
     6  C    0.001923  -0.047669   0.030143   0.004426  -0.000949   0.000191
     7  N   -0.003594  -0.023887  -0.018115   0.147049   0.017182  -0.000808
     8  C   -0.092758   0.011865   0.011543  -0.004341  -0.014042   0.031115
     9  N    0.009328   0.001668   0.000077   0.035024   0.207956  -0.048902
    10  O    0.001061   0.000023  -0.004277   0.003380   0.002446   0.001556
    11  C    0.043992   0.000347   0.000849   0.015348   0.000182   0.373500
    12  C   -0.119950  -0.000038   0.000017  -0.000673  -0.005857  -0.039317
    13  C    5.767595  -0.000002   0.000037   0.000216   0.000926  -0.010751
    14  H   -0.000002   0.499255  -0.000110   0.012272  -0.000001  -0.000000
    15  H    0.000037  -0.000110   0.417939  -0.000224  -0.000000  -0.000000
    16  H    0.000216   0.012272  -0.000224   0.337261   0.006572  -0.000023
    17  H    0.000926  -0.000001  -0.000000   0.006572   0.315818  -0.005323
    18  H   -0.010751  -0.000000  -0.000000  -0.000023  -0.005323   0.515552
    19  H   -0.000802   0.000000  -0.000002   0.000015   0.002922  -0.027917
    20  H   -0.016566   0.000000  -0.000001  -0.000003  -0.000182   0.004070
    21  H   -0.042448  -0.000000  -0.000000  -0.000001   0.000281  -0.005722
    22  H    0.423021   0.000000  -0.000000  -0.000000  -0.000005  -0.000350
    23  H    0.428043   0.000000   0.000000   0.000000   0.000003  -0.000091
    24  H    0.433345  -0.000000  -0.000000  -0.000000   0.000004   0.002848
    25  H   -0.000000  -0.003236   0.000010  -0.000021   0.000000  -0.000000
    26  H   -0.000000   0.000013  -0.002862   0.000003  -0.000000  -0.000000
    27  N    0.000000  -0.000548   0.000331  -0.000016   0.000000  -0.000000
    28  O   -0.000000   0.000059  -0.000113   0.000001   0.000000   0.000000
    29  O    0.000000  -0.000001   0.000050   0.000000  -0.000000  -0.000000
    30  O   -0.000016   0.001893  -0.000012   0.020298  -0.000319   0.000020
    31  C   -0.000470   0.002353   0.000116  -0.000777  -0.003251  -0.001364
    32  O    0.000456   0.000022  -0.000001  -0.000255   0.009421   0.001166
    33  C    0.000776  -0.000452   0.000014  -0.000279   0.006959  -0.000212
    34  C    0.000003   0.000235  -0.000001   0.000901   0.000142  -0.000009
    35  H    0.000000   0.000000  -0.000000   0.000001  -0.000000   0.000000
    36  H   -0.000000   0.000000  -0.000000   0.000001  -0.000000   0.000000
    37  H    0.000000   0.000001   0.000000   0.000001   0.000000   0.000000
    38  H    0.000000   0.000000  -0.000000   0.000000  -0.000000   0.000000
    39  H    0.000000   0.000002   0.000000   0.000001   0.000000  -0.000000
              19         20         21         22         23         24
[...]
     5  C    0.000649   0.002841  -0.000988  -0.000422   0.000107   0.000118
     6  C    0.000047   0.000479  -0.000153  -0.000058   0.000014   0.000009
     7  N    0.000601  -0.000391   0.000978   0.000029   0.000025  -0.000007
     8  C   -0.037796  -0.006104   0.001924  -0.004177  -0.001394   0.001631
     9  N   -0.055041  -0.005807   0.008349   0.000508  -0.000286  -0.001725
    10  O   -0.007225   0.002887  -0.000818  -0.000146   0.000097   0.000011
    11  C    0.524797  -0.058988  -0.065852  -0.006473   0.023427  -0.010642
    12  C   -0.098927   0.410204   0.413327  -0.070880  -0.084232  -0.068844
    13  C   -0.001726  -0.018798  -0.043258   0.427787   0.418465   0.424464
    14  H    0.000000   0.000000  -0.000000  -0.000000   0.000000   0.000000
    15  H   -0.000002   0.000001  -0.000000  -0.000000   0.000000  -0.000000
    16  H    0.000006  -0.000002  -0.000001  -0.000000  -0.000000   0.000000
    17  H    0.002778  -0.000087   0.000202  -0.000005   0.000003   0.000006
    18  H   -0.027660   0.004008  -0.005628  -0.000332  -0.000083   0.002814
    19  H    0.453824  -0.004486   0.003940   0.002715  -0.000080  -0.000329
    20  H   -0.004486   0.468048  -0.030913  -0.004209  -0.002678   0.003680
    21  H    0.003940  -0.030913   0.517093   0.003935  -0.002682  -0.004547
    22  H    0.002715  -0.004209   0.003935   0.489537  -0.024228  -0.031764
    23  H   -0.000080  -0.002678  -0.002682  -0.024228   0.482404  -0.026011
    24  H   -0.000329   0.003680  -0.004547  -0.031764  -0.026011   0.506520
    25  H    0.000000  -0.000000   0.000000  -0.000000  -0.000000  -0.000000
    26  H   -0.000000  -0.000000   0.000000   0.000000  -0.000000  -0.000000
    27  N    0.000000  -0.000000   0.000000   0.000000   0.000000  -0.000000
    28  O    0.000000   0.000000   0.000000  -0.000000  -0.000000   0.000000
    29  O   -0.000000   0.000000  -0.000000   0.000000  -0.000000   0.000000
              25         26         27         28         29
     1  C    0.157447   0.178824  -0.604733  -0.570515  -0.488627
     2  C    0.176595   0.089689   0.008771   0.090911   0.101384
     3  C   -0.082499  -0.035805   0.106662  -0.048741   0.159329
     4  C    0.010340  -0.017309  -0.030100   0.051247   0.056667
     5  C    0.001688  -0.089519  -0.037442   0.280581   0.003187
     6  C    0.062383   0.199853   0.184351   0.099809   0.072850
     7  N    0.000157  -0.000532  -0.001674  -0.000117  -0.000212
     8  C    0.001691   0.001524  -0.000386   0.000590   0.000994
     9  N    0.000001   0.000008  -0.000216  -0.000003  -0.000002
    10  O    0.000002   0.000090   0.000141   0.000009  -0.000004
    11  C    0.000009   0.000006  -0.000014   0.000000   0.000002
    12  C   -0.000000   0.000000   0.000004  -0.000000   0.000000
    13  C   -0.000000  -0.000000   0.000000  -0.000000   0.000000
    14  H   -0.003401   0.000013  -0.000493   0.000056   0.000030
    15  H    0.000009  -0.002877   0.000336  -0.000107   0.000049
    16  H   -0.000021   0.000003   0.000021   0.000000   0.000001
    17  H   -0.000000  -0.000000   0.000001  -0.000000  -0.000000
    18  H   -0.000000  -0.000000  -0.000000   0.000000   0.000000
    19  H    0.000000  -0.000000   0.000000   0.000000  -0.000000
    20  H   -0.000000  -0.000000  -0.000000   0.000000   0.000000
    21  H    0.000000   0.000000   0.000000   0.000000  -0.000000
    22  H   -0.000000   0.000000   0.000000  -0.000000   0.000000
    23  H   -0.000000  -0.000000   0.000000  -0.000000  -0.000000
    24  H   -0.000000  -0.000000  -0.000000   0.000000   0.000000
    25  H    0.438078  -0.000108  -0.036765  -0.002163   0.016974
    26  H   -0.000108   0.434254  -0.037700   0.018373  -0.002286
    27  N   -0.036765  -0.037700   6.997231   0.391840   0.371787
    28  O   -0.002163   0.018373   0.391840   7.807560  -0.079604
    29  O    0.016974  -0.002286   0.371787  -0.079604   7.839618
 Mulliken charges:
               1
     1  C   -0.204169
     2  C    0.091356
     3  C   -1.322845
     4  C    0.296284
     5  C    0.819112
     6  C   -0.412476
     7  N   -0.638465
     8  C    0.746054
     9  N   -0.598037
    10  O   -0.568025
    11  C   -0.167608
    12  C   -0.228441
    13  C   -0.766841
    14  H    0.196863
    15  H    0.281931
    16  H    0.404679
    17  H    0.401751
    18  H    0.207520
    19  H    0.254028
    20  H    0.242555
    21  H    0.205194
    22  H    0.218028
    23  H    0.217285
    24  H    0.204674
    25  H    0.259584
    26  H    0.263499
    27  N   -0.311623
    28  O   -0.039728
    29  O   -0.052139
    30  O    0.000000
    31  C    0.000000
    32  O    0.000000
    33  C    0.000000
    34  C    0.000000
    35  H    0.000000
    36  H    0.000000
    37  H    0.000000
    38  H    0.000000
    39  H    0.000000
 Sum of Mulliken charges =  -0.00000
 Mulliken charges with hydrogens summed into heavy atoms:
               1
     1  C   -0.204169
     2  C    0.350940
     3  C   -1.125982
     4  C    0.296284
     5  C    1.101043
     6  C   -0.148977
     7  N   -0.233786
     8  C    0.746054
     9  N   -0.196286
    10  O   -0.568025
    11  C    0.293940
    12  C    0.219307
    13  C   -0.126854
    27  N   -0.311623
    28  O   -0.039728
    29  O   -0.052139
    30  O    0.000000
    31  C    0.000000
    32  O    0.000000
    33  C    0.000000
    34  C    0.000000
         Mulliken charges condensed to fragments:
      1     -0.000000
      2      0.000000
 Electronic spatial extent (au):  <R**2>=           7171.9014
 Charge=             -0.0000 electrons
 Dipole moment (field-independent basis, Debye):
    X=              8.8639    Y=              3.0884    Z=             -0.0419  Tot=              9.3866
 Quadrupole moment (field-independent basis, Debye-Ang):
   XX=           -128.3860   YY=            -97.0066   ZZ=            -97.5040
   XY=             -1.0234   XZ=              1.5006   YZ=             -1.2782
 Traceless Quadrupole moment (field-independent basis, Debye-Ang):
   XX=            -20.7538   YY=             10.6256   ZZ=             10.1282
   XY=             -1.0234   XZ=              1.5006   YZ=             -1.2782
 Octapole moment (field-independent basis, Debye-Ang**2):
  XXX=            552.4128  YYY=            320.6501  ZZZ=              2.9309  XYY=             70.4506
  XXY=            101.0594  XXZ=            -14.6449  XZZ=             64.4630  YZZ=            101.6626
  YYZ=              4.3959  XYZ=             -2.3800
 Hexadecapole moment (field-independent basis, Debye-Ang**3):
 XXXX=          -9440.9276 YYYY=          -1808.1331 ZZZZ=           -208.2822 XXXY=            543.9136
 XXXZ=             63.6254 YYYX=            667.3332 YYYZ=             11.5869 ZZZX=             -9.2743
 ZZZY=             19.0097 XXYY=          -1555.1180 XXZZ=          -1260.0676 YYZZ=           -334.8167
 XXYZ=              0.6622 YYXZ=              7.8605 ZZXY=            219.2321
 N-N= 1.035872580927D+03 E-N=-3.884306725765D+03  KE= 7.717773637163D+02
 CPIOFr:  IOpCl= 0 IRwI=-1 IRwCP=  731 ICalc=  3 LCPTot=      296755 Len1MO=      765188 IndFrg=     3357507
 Counterpoise: doing MCBS calculation for fragment   2
 Basis read from rwf:  (6D, 7F)
 There are   105 symmetry adapted cartesian basis functions of A   symmetry.
 There are   105 symmetry adapted basis functions of A   symmetry.
   105 basis functions,   180 primitive gaussians,   105 cartesian basis functions
    20 alpha electrons       20 beta electrons
       nuclear repulsion energy       168.5552491642 Hartrees.
 NAtoms=   39 NActive=   10 NUniq=   10 SFac= 1.00D+00 NAtFMM=   60 NAOKFM=F Big=F
 Integral buffers will be    131072 words long.
 Raffenetti 2 integral format.
 Two-electron integral symmetry is turned on.
 One-electron integrals computed using PRISM.
 NBasis=   105 RedAO= T EigKep=  1.22D-04  NBF=   105
 NBsUse=   105 1.00D-06 EigRej= -1.00D+00 NBFU=   105
 ExpMin= 4.38D-02 ExpMax= 5.48D+03 ExpMxC= 8.25D+02 IAcc=3 IRadAn=         5 AccDes= 0.00D+00
 Harris functional with IExCor= 1009 and IRadAn=       5 diagonalized for initial guess.
 HarFok:  IExCor= 1009 AccDes= 0.00D+00 IRadAn=         5 IDoV= 1 UseB2=F ITyADJ=14
 ICtDFT=  3500011 ScaDFX=  1.000000  1.000000  1.000000  1.000000
 FoFCou: FMM=F IPFlag=           0 FMFlag=      100000 FMFlg1=           0
         NFxFlg=           0 DoJE=T BraDBF=F KetDBF=T FulRan=T
         wScrn=  0.000000 ICntrl=     500 IOpCl=  0 I1Cent=   200000004 NGrid=           0
         NMat0=    1 NMatS0=      1 NMatT0=    0 NMatD0=    1 NMtDS0=    0 NMtDT0=    0
 Petite list used in FoFCou.
 Keep R1 ints in memory in canonical form, NReq=16474032.
 Requested convergence on RMS density matrix=1.00D-08 within 128 cycles.
 Requested convergence on MAX density matrix=1.00D-06.
 Requested convergence on             energy=1.00D-06.
 No special actions if energy rises.
 SCF Done:  E(RM062X) =  -267.728455199     A.U. after   14 cycles
            NFock= 14  Conv=0.41D-08     -V/T= 2.0084

 **********************************************************************

            Population analysis using the SCF density.

 **********************************************************************

 Orbital symmetries:
       Occupied  (A) (A) (A) (A) (A) (A) (A) (A) (A) (A) (A) (A)
                 (A) (A) (A) (A) (A) (A) (A) (A)
       Virtual   (A) (A) (A) (A) (A) (A) (A) (A) (A) (A) (A) (A)
                 (A) (A) (A) (A) (A) (A) (A) (A) (A) (A) (A) (A)
                 (A) (A) (A) (A) (A) (A) (A) (A) (A) (A) (A) (A)
                 (A) (A) (A) (A) (A) (A) (A) (A) (A) (A) (A) (A)
                 (A) (A) (A) (A) (A) (A) (A) (A) (A) (A) (A) (A)
                 (A) (A) (A) (A) (A) (A) (A) (A) (A) (A) (A) (A)
                 (A) (A) (A) (A) (A) (A) (A) (A) (A) (A) (A) (A)
                 (A)
 The electronic state is 1-A.
 Alpha  occ. eigenvalues --  -19.38293 -19.37994 -10.43613 -10.38684 -10.37529
 Alpha  occ. eigenvalues --   -0.94226  -0.84514  -0.69918  -0.56024  -0.39485
 Alpha  occ. eigenvalues --   -0.36279  -0.33513  -0.30140  -0.27619  -0.27397
 Alpha  occ. eigenvalues --   -0.25011  -0.22636  -0.10883  -0.10843  -0.10172
 Alpha virt. eigenvalues --    0.14618   0.16484   0.18638   0.19569   0.21555
 Alpha virt. eigenvalues --    0.21833   0.22416   0.22880   0.23466   0.25912
 Alpha virt. eigenvalues --    0.28390   0.29732   0.30030   0.38011   0.38910
 Alpha virt. eigenvalues --    0.42266   0.42511   0.43637   0.45466   0.46255
 Alpha virt. eigenvalues --    0.46735   0.47999   0.49569   0.49793   0.50772
 Alpha virt. eigenvalues --    0.55107   0.56104   0.57225   0.71706   0.75173
 Alpha virt. eigenvalues --    0.84455   0.86643   0.89660   0.92071   0.94829
 Alpha virt. eigenvalues --    0.99482   1.01987   1.08482   1.10006   1.14582
 Alpha virt. eigenvalues --    1.20098   1.21334   1.31086   1.32752   1.33989
 Alpha virt. eigenvalues --    1.34581   1.49199   1.54765   1.57825   1.59184
 Alpha virt. eigenvalues --    1.61028   1.63155   1.63279   1.74396   1.78274
 Alpha virt. eigenvalues --    1.80822   1.86865   2.02522   2.02861   2.08641
 Alpha virt. eigenvalues --    2.10127   2.12093   2.14388   2.16394   2.22717
 Alpha virt. eigenvalues --    2.26483   2.28183   2.29492   2.45080   2.52358
 Alpha virt. eigenvalues --    2.54069   2.54380   2.73508   2.74163   2.78553
 Alpha virt. eigenvalues --    2.97690   3.13257   3.27206   3.32729   3.42440
 Alpha virt. eigenvalues --    4.36348   4.41524   4.58229   4.66918   4.82534
          Condensed to atoms (all electrons):
               1          2          3          4          5          6
     1  O    8.598126   0.462896  -0.169909  -0.323892   0.096180   0.001473
     2  C    0.462896   4.837694   0.529849  -0.363515   0.050791  -0.015297
     3  O   -0.169909   0.529849   8.617703  -0.393163   0.079308  -0.002878
     4  C   -0.323892  -0.363515  -0.393163   7.536907  -0.640628   0.388972
     5  C    0.096180   0.050791   0.079308  -0.640628   6.024566  -0.056264
     6  H    0.001473  -0.015297  -0.002878   0.388972  -0.056264   0.530255
     7  H    0.001153  -0.015297  -0.002737   0.388128  -0.055392  -0.032680
     8  H   -0.006597  -0.003448  -0.000083  -0.047515   0.410898  -0.004320
     9  H    0.002890   0.012501  -0.000309  -0.060413   0.378524  -0.002045
    10  H   -0.006689  -0.002293  -0.000131  -0.048617   0.411185   0.003860
               7          8          9         10
     1  O    0.001153  -0.006597   0.002890  -0.006689
     2  C   -0.015297  -0.003448   0.012501  -0.002293
     3  O   -0.002737  -0.000083  -0.000309  -0.000131
     4  C    0.388128  -0.047515  -0.060413  -0.048617
     5  C   -0.055392   0.410898   0.378524   0.411185
     6  H   -0.032680  -0.004320  -0.002045   0.003860
     7  H    0.530715   0.003860  -0.002028  -0.004351
     8  H    0.003860   0.499659  -0.033986  -0.025545
     9  H   -0.002028  -0.033986   0.589225  -0.033904
    10  H   -0.004351  -0.025545  -0.033904   0.498062
 Mulliken charges:
               1
     1  C    0.000000
     2  C    0.000000
     3  C    0.000000
     4  C    0.000000
     5  C    0.000000
     6  C    0.000000
     7  N    0.000000
     8  C    0.000000
     9  N    0.000000
    10  O    0.000000
    11  C    0.000000
    12  C    0.000000
    13  C    0.000000
    14  H    0.000000
    15  H    0.000000
    16  H    0.000000
    17  H    0.000000
    18  H    0.000000
    19  H    0.000000
    20  H    0.000000
    21  H    0.000000
    22  H    0.000000
    23  H    0.000000
    24  H    0.000000
    25  H    0.000000
    26  H    0.000000
    27  N    0.000000
    28  O    0.000000
    29  O    0.000000
    30  O   -0.655632
    31  C    0.506119
    32  O   -0.657652
    33  C   -0.436264
    34  C   -0.699167
    35  H    0.188923
    36  H    0.188630
    37  H    0.207077
    38  H    0.149545
    39  H    0.208421
 Sum of Mulliken charges =  -1.00000
 Mulliken charges with hydrogens summed into heavy atoms:
               1
     1  C    0.000000
     2  C    0.000000
     3  C    0.000000
     4  C    0.000000
     5  C    0.000000
     6  C    0.000000
     7  N    0.000000
     8  C    0.000000
     9  N    0.000000
    10  O    0.000000
    11  C    0.000000
    12  C    0.000000
    13  C    0.000000
    27  N    0.000000
    28  O    0.000000
    29  O    0.000000
    30  O   -0.655632
    31  C    0.506119
    32  O   -0.657652
    33  C   -0.058712
    34  C   -0.134124
         Mulliken charges condensed to fragments:
      1      0.000000
      2     -1.000000
 Electronic spatial extent (au):  <R**2>=           2621.2327
 Charge=             -1.0000 electrons
 Dipole moment (field-independent basis, Debye):
    X=            -10.3774    Y=             -9.7041    Z=              0.4211  Tot=             14.2140
 Quadrupole moment (field-independent basis, Debye-Ang):
   XX=            -65.0888   YY=            -58.7094   ZZ=            -32.4437
   XY=            -18.3563   XZ=              1.2282   YZ=              0.2677
 Traceless Quadrupole moment (field-independent basis, Debye-Ang):
   XX=            -13.0082   YY=             -6.6287   ZZ=             19.6369
   XY=            -18.3563   XZ=              1.2282   YZ=              0.2677
 Octapole moment (field-independent basis, Debye-Ang**2):
  XXX=           -333.3268  YYY=           -424.9397  ZZZ=             -1.9441  XYY=           -116.3139
  XXY=           -163.9199  XXZ=              3.3794  XZZ=            -72.0349  YZZ=           -106.6740
  YYZ=             -2.7744  XYZ=              1.1360
 Hexadecapole moment (field-independent basis, Debye-Ang**3):
 XXXX=          -1573.8080 YYYY=          -3028.0110 ZZZZ=            -52.5600 XXXY=           -895.8282
 XXXZ=             12.1223 YYYX=           -853.7187 YYYZ=            -38.4320 ZZZX=             -1.3999
 ZZZY=            -20.7446 XXYY=           -734.4693 XXZZ=           -199.0918 YYZZ=           -424.9598
 XXYZ=             -2.2805 YYXZ=             -3.5032 ZZXY=           -226.8955
 N-N= 1.685552491642D+02 E-N=-9.724543100446D+02  KE= 2.654896012470D+02
 CPIOFr:  IOpCl= 0 IRwI=-1 IRwCP=  731 ICalc=  4 LCPTot=      296755 Len1MO=      765188 IndFrg=     4122695
 CPIOFr:  IOpCl= 0 IRwI=-2 IRwCP=  731 ICalc=  0 LCPTot=      296755 Len1MO=      765188 IndFrg=     1061943
 Counterpoise corrected energy =   -1046.259195313119
                   BSSE energy =       0.001750742442
               sum of monomers =   -1046.175571646615
           complexation energy =     -53.57 kcal/mole (raw)
           complexation energy =     -52.47 kcal/mole (corrected)
 1\1\GINC-R51\SP\RM062X\Gen\C13H18N3O5(1-)\ROOT\09-Apr-2019\0\\# M062X/
 Gen 6D SCF=Tight INT(grid=ultrafine) Counterpoise=2 maxdisk=671088640\
 \4Nitro_EtO_c3.M062X_6-31pGd_bsse\\-1,1\C,0,-3.7513263626,3.9287002984
 ,-1.4505395418\C,0,-3.9455572747,2.6243727976,-0.9846289191\C,0,-2.936
 927777,2.0014055091,-0.2802025115\C,0,-1.7096688283,2.6659517193,-0.02
 4422138\C,0,-1.535695504,3.9850310636,-0.5052467599\C,0,-2.5539939553,
 4.6028171751,-1.2117753213\N,0,-0.7720089716,1.9608725535,0.6831292376
 \C,0,0.5025559611,2.3834607537,1.0573525174\N,0,1.1827517827,1.4362686
 54,1.7431219496\O,0,0.9586568773,3.4999641801,0.7991663616\C,0,2.53102
 8656,1.6960751786,2.1907891791\C,0,3.5776208211,1.5305754301,1.0868344
 849\C,0,4.9865738083,1.8272058884,1.5959812679\H,0,-3.0605239941,0.987
 906215,0.0934343262\H,0,-0.6039465985,4.4975466848,-0.3123095345\H,0,-
 1.0586934705,0.9955756732,0.9643172981\H,0,0.7778337816,0.4951882362,1
 .9102444592\H,0,2.7401220338,0.9995352132,3.0110440818\H,0,2.583493022
 6,2.717231094,2.5885710843\H,0,3.3180971829,2.2087510005,0.2662506309\
 H,0,3.5188100697,0.5068521472,0.6977189723\H,0,5.0576846237,2.85633624
 28,1.9673730322\H,0,5.7355517073,1.7044446308,0.8065343199\H,0,5.25691
 66191,1.156387375,2.4207390873\H,0,-4.8840950827,2.1191367085,-1.18153
 09314\H,0,-2.4308307514,5.6134303474,-1.5843936687\N,0,-4.8063636602,4
 .5870895478,-2.1895779655\O,0,-4.6149556496,5.7315272307,-2.5882817866
 \O,0,-5.8500105627,3.9735506972,-2.3875348715\O,0,-1.7268088676,-0.546
 2757561,1.3134473007\C,0,-0.9655792279,-1.3594450596,1.9063291377\O,0,
 0.2158334553,-1.1367762144,2.2719443567\C,0,-1.5213058226,-2.758525152
 5,2.2149996278\C,0,-2.9643848344,-2.9757780895,1.7770555166\H,0,-1.406
 9722479,-2.9182392918,3.2942125986\H,0,-0.850421965,-3.481940197,1.735
 1049278\H,0,-3.6285789748,-2.2568840959,2.265498238\H,0,-3.3051512128,
 -3.9892626873,2.0219187841\H,0,-3.0677088063,-2.8234837015,0.698881171
 6\\Version=ES64L-G09RevE.01\State=1-A\HF=-267.7284552\RMSD=4.083e-09\D
 ipole=1.1203743,-0.3445599,0.3193793\Quadrupole=-6.2426389,-4.2072351,
 10.449874,14.5445351,-18.8761834,18.4243407\PG=C01 [X(C13H18N3O5)]\\@


 THOSE WHO ARE UNABLE TO LEARN FROM PAST MEETINGS
 ARE CONDEMNED TO REPEAT THEM.
 Job cpu time:       0 days  1 hours 53 minutes 11.3 seconds.
 File lengths (MBytes):  RWF=    156 Int=      0 D2E=      0 Chk=     43 Scr=      1
 Normal termination of Gaussian 09 at Tue Apr  9 09:15:00 2019.
WARNING: pbs_rusage is deprecated and values produced may not be accurate


=============================================================================
                                     Resource usage:
                                       CPU time:              01:44:27
   JobId:    7529825.r-man2            Elapsed time:          00:28:23
   Project:             q95            Requested time:        24:00:00
   Service Units:      1.89 
                                       Max physical memory:      148MB
                                       Max virtual memory:       380MB
                                       Requested memory:           0MB

                                       Number of cpus:               4

                                       Max jobfs disk use:       0.2GB
                                       Requested jobfs:          5.0GB
=============================================================================

