 Entering Gaussian System, Link 0=/apps/gaussian/g09e01/g09/g09
 AtFile(1): /home/507/hio507/Basis/6-31pGd.gbs
 Initial command:
 /apps/gaussian/g09e01/g09/l1.exe "/jobfs/local/8440165.r-man2/Gau-52368.inp" -scrdir="/jobfs/local/8440165.r-man2/"
 Entering Link 1 = /apps/gaussian/g09e01/g09/l1.exe PID=     52369.
  
 Copyright (c) 1988,1990,1992,1993,1995,1998,2003,2009,2015,
            Gaussian, Inc.  All Rights Reserved.
  
 This is part of the Gaussian(R) 09 program.  It is based on
 the Gaussian(R) 03 system (copyright 2003, Gaussian, Inc.),
 the Gaussian(R) 98 system (copyright 1998, Gaussian, Inc.),
 the Gaussian(R) 94 system (copyright 1995, Gaussian, Inc.),
 the Gaussian 92(TM) system (copyright 1992, Gaussian, Inc.),
 the Gaussian 90(TM) system (copyright 1990, Gaussian, Inc.),
 the Gaussian 88(TM) system (copyright 1988, Gaussian, Inc.),
 the Gaussian 86(TM) system (copyright 1986, Carnegie Mellon
 University), and the Gaussian 82(TM) system (copyright 1983,
 Carnegie Mellon University). Gaussian is a federally registered
 trademark of Gaussian, Inc.
  
 This software contains proprietary and confidential information,
 including trade secrets, belonging to Gaussian, Inc.
  
 This software is provided under written license and may be
 used, copied, transmitted, or stored only in accord with that
 written license.
  
 The following legend is applicable only to US Government
 contracts under FAR:
  
                    RESTRICTED RIGHTS LEGEND
  
 Use, reproduction and disclosure by the US Government is
 subject to restrictions as set forth in subparagraphs (a)
 and (c) of the Commercial Computer Software - Restricted
 Rights clause in FAR 52.227-19.
  
 Gaussian, Inc.
 340 Quinnipiac St., Bldg. 40, Wallingford CT 06492
  
  
 ---------------------------------------------------------------
 Warning -- This program may not be used in any manner that
 competes with the business of Gaussian, Inc. or will provide
 assistance to any competitor of Gaussian, Inc.  The licensee
 of this program is prohibited from giving any competitor of
 Gaussian, Inc. access to this program.  By using this program,
 the user acknowledges that Gaussian, Inc. is engaged in the
 business of creating and licensing software in the field of
 computational chemistry and represents and warrants to the
 licensee that it is not a competitor of Gaussian, Inc. and that
 it will not use this program in any manner prohibited above.
 ---------------------------------------------------------------
  

 Cite this work as:
 Gaussian 09, Revision E.01,
 M. J. Frisch, G. W. Trucks, H. B. Schlegel, G. E. Scuseria, 
 M. A. Robb, J. R. Cheeseman, G. Scalmani, V. Barone, B. Mennucci, 
 G. A. Petersson, H. Nakatsuji, M. Caricato, X. Li, H. P. Hratchian, 
 A. F. Izmaylov, J. Bloino, G. Zheng, J. L. Sonnenberg, M. Hada, 
 M. Ehara, K. Toyota, R. Fukuda, J. Hasegawa, M. Ishida, T. Nakajima, 
 Y. Honda, O. Kitao, H. Nakai, T. Vreven, J. A. Montgomery, Jr., 
 J. E. Peralta, F. Ogliaro, M. Bearpark, J. J. Heyd, E. Brothers, 
 K. N. Kudin, V. N. Staroverov, T. Keith, R. Kobayashi, J. Normand, 
 K. Raghavachari, A. Rendell, J. C. Burant, S. S. Iyengar, J. Tomasi, 
 M. Cossi, N. Rega, J. M. Millam, M. Klene, J. E. Knox, J. B. Cross, 
 V. Bakken, C. Adamo, J. Jaramillo, R. Gomperts, R. E. Stratmann, 
 O. Yazyev, A. J. Austin, R. Cammi, C. Pomelli, J. W. Ochterski, 
 R. L. Martin, K. Morokuma, V. G. Zakrzewski, G. A. Voth, 
 P. Salvador, J. J. Dannenberg, S. Dapprich, A. D. Daniels, 
 O. Farkas, J. B. Foresman, J. V. Ortiz, J. Cioslowski, 
 and D. J. Fox, Gaussian, Inc., Wallingford CT, 2013.
 
 ******************************************
 Gaussian 09:  ES64L-G09RevE.01 30-Nov-2015
                16-Jul-2018 
 ******************************************
 %chk=aryl_urea_nitro.M062X.opt.chk
 %mem=196608000
 %nproc=4
 Will use up to    4 processors via shared memory.
 ----------------------------------------------------------------------
 # M062X/Gen 6D SCF=Tight INT(grid=ultrafine) OPT IOP(2/17=4) Freq=Nora
 man maxdisk=2147483648
 ----------------------------------------------------------------------
 1/14=-1,18=20,19=15,26=4,38=1/1,3;
 2/9=110,12=2,17=4,18=5,40=1/2;
 3/5=7,8=2,11=2,16=1,25=1,30=1,71=1,74=-55,75=-5/1,2,3;
 4//1;
 5/5=2,32=2,38=5/2;
 6/7=2,8=2,9=2,10=2,28=1/1;
 7//1,2,3,16;
 1/14=-1,18=20,19=15,26=4/3(2);
 2/9=110,17=4/2;
 99//99;
 2/9=110,17=4/2;
 3/5=7,6=1,8=2,11=2,16=1,25=1,30=1,71=1,74=-55,75=-5,82=7/1,2,3;
 4/5=5,16=3,69=1/1;
 5/5=2,32=2,38=5/2;
 7//1,2,3,16;
 1/14=-1,18=20,19=15,26=4/3(-5);
 2/9=110,17=4/2;
 6/7=2,8=2,9=2,10=2,19=2,28=1/1;
 99/9=1/99;
 -------------------------
 aryl_urea_nitro.M062X.opt
 -------------------------
 Symbolic Z-matrix:
 Charge =  0 Multiplicity = 1
 C                    -4.19013   3.57156  -1.19717 
 C                    -4.23443   2.21214  -0.85569 
 C                    -3.11047   1.57725  -0.32277 
 C                    -1.90579   2.27441  -0.11236 
 C                    -1.86843   3.64613  -0.45881 
 C                    -2.99593   4.27939  -0.99243 
 N                    -0.79686   1.5409    0.43971 
 C                     0.29876   2.03695   1.09397 
 N                     1.25552   1.17743   1.54589 
 O                     0.43762   3.23527   1.28047 
 C                     2.43989   1.64662   2.24415 
 C                     3.34768   0.47482   2.6353 
 C                     4.5948    0.96221   3.36711 
 H                    -3.18266   0.52618  -0.07156 
 H                    -0.99844   4.26435  -0.33681 
 H                    -0.83346   0.51573   0.32583 
 H                     1.13624   0.16455   1.3864 
 H                     2.13132   2.1932    3.16267 
 H                     3.00414   2.34028   1.58225 
 H                     3.65865  -0.0744    1.71993 
 H                     2.78936  -0.22167   3.29814 
 H                     5.18171   1.64546   2.71686 
 H                     5.23173   0.09342   3.63632 
 H                     4.31161   1.49788   4.29818 
 H                    -5.13874   1.63501  -0.99995 
 H                    -2.92989   5.3299   -1.24586 
 N                    -5.3359    4.22139  -1.74187 
 O                    -5.19977   5.30326  -2.5214 
 O                    -6.56783   3.76033  -1.4841 
 

 GradGradGradGradGradGradGradGradGradGradGradGradGradGradGradGradGradGrad
 Berny optimization.
 Initialization pass.
                           ----------------------------
                           !    Initial Parameters    !
                           ! (Angstroms and Degrees)  !
 --------------------------                            --------------------------
 ! Name  Definition              Value          Derivative Info.                !
 --------------------------------------------------------------------------------
 ! R1    R(1,2)                  1.4024         estimate D2E/DX2                !
 ! R2    R(1,6)                  1.4032         estimate D2E/DX2                !
 ! R3    R(1,27)                 1.4254         estimate D2E/DX2                !
 ! R4    R(2,3)                  1.3966         estimate D2E/DX2                !
 ! R5    R(2,25)                 1.0824         estimate D2E/DX2                !
 ! R6    R(3,4)                  1.4077         estimate D2E/DX2                !
 ! R7    R(3,14)                 1.0831         estimate D2E/DX2                !
 ! R8    R(4,5)                  1.4153         estimate D2E/DX2                !
 ! R9    R(4,7)                  1.4396         estimate D2E/DX2                !
 ! R10   R(5,6)                  1.3989         estimate D2E/DX2                !
 ! R11   R(5,15)                 1.0742         estimate D2E/DX2                !
 ! R12   R(6,26)                 1.0827         estimate D2E/DX2                !
 ! R13   R(7,8)                  1.3691         estimate D2E/DX2                !
 ! R14   R(7,16)                 1.0321         estimate D2E/DX2                !
 ! R15   R(8,9)                  1.3632         estimate D2E/DX2                !
 ! R16   R(8,10)                 1.2207         estimate D2E/DX2                !
 ! R17   R(9,11)                 1.4527         estimate D2E/DX2                !
 ! R18   R(9,17)                 1.0323         estimate D2E/DX2                !
 ! R19   R(11,12)                1.533          estimate D2E/DX2                !
 ! R20   R(11,18)                1.1125         estimate D2E/DX2                !
 ! R21   R(11,19)                1.1125         estimate D2E/DX2                !
 ! R22   R(12,13)                1.5259         estimate D2E/DX2                !
 ! R23   R(12,20)                1.1119         estimate D2E/DX2                !
 ! R24   R(12,21)                1.1118         estimate D2E/DX2                !
 ! R25   R(13,22)                1.1109         estimate D2E/DX2                !
 ! R26   R(13,23)                1.1104         estimate D2E/DX2                !
 ! R27   R(13,24)                1.1109         estimate D2E/DX2                !
 ! R28   R(27,28)                1.3404         estimate D2E/DX2                !
 ! R29   R(27,29)                1.3404         estimate D2E/DX2                !
 ! A1    A(2,1,6)              118.7077         estimate D2E/DX2                !
 ! A2    A(2,1,27)             120.6369         estimate D2E/DX2                !
 ! A3    A(6,1,27)             120.6554         estimate D2E/DX2                !
 ! A4    A(1,2,3)              120.5433         estimate D2E/DX2                !
 ! A5    A(1,2,25)             120.7166         estimate D2E/DX2                !
 ! A6    A(3,2,25)             118.7401         estimate D2E/DX2                !
 ! A7    A(2,3,4)              121.375          estimate D2E/DX2                !
 ! A8    A(2,3,14)             118.427          estimate D2E/DX2                !
 ! A9    A(4,3,14)             120.198          estimate D2E/DX2                !
 ! A10   A(3,4,5)              117.7756         estimate D2E/DX2                !
 ! A11   A(3,4,7)              117.6576         estimate D2E/DX2                !
 ! A12   A(5,4,7)              124.5667         estimate D2E/DX2                !
 ! A13   A(4,5,6)              120.7196         estimate D2E/DX2                !
 ! A14   A(4,5,15)             123.4606         estimate D2E/DX2                !
 ! A15   A(6,5,15)             115.8198         estimate D2E/DX2                !
 ! A16   A(1,6,5)              120.8788         estimate D2E/DX2                !
 ! A17   A(1,6,26)             120.4779         estimate D2E/DX2                !
 ! A18   A(5,6,26)             118.6433         estimate D2E/DX2                !
 ! A19   A(4,7,8)              127.9562         estimate D2E/DX2                !
 ! A20   A(4,7,16)             115.8777         estimate D2E/DX2                !
 ! A21   A(8,7,16)             116.166          estimate D2E/DX2                !
 ! A22   A(7,8,9)              119.4463         estimate D2E/DX2                !
 ! A23   A(7,8,10)             121.3135         estimate D2E/DX2                !
 ! A24   A(9,8,10)             119.2401         estimate D2E/DX2                !
 ! A25   A(8,9,11)             121.8629         estimate D2E/DX2                !
 ! A26   A(8,9,17)             119.1003         estimate D2E/DX2                !
 ! A27   A(11,9,17)            119.0367         estimate D2E/DX2                !
 ! A28   A(9,11,12)            111.0101         estimate D2E/DX2                !
 ! A29   A(9,11,18)            109.232          estimate D2E/DX2                !
 ! A30   A(9,11,19)            109.2022         estimate D2E/DX2                !
 ! A31   A(12,11,18)           109.2157         estimate D2E/DX2                !
 ! A32   A(12,11,19)           109.1513         estimate D2E/DX2                !
 ! A33   A(18,11,19)           109.0            estimate D2E/DX2                !
 ! A34   A(11,12,13)           111.2344         estimate D2E/DX2                !
 ! A35   A(11,12,20)           109.4587         estimate D2E/DX2                !
 ! A36   A(11,12,21)           109.4862         estimate D2E/DX2                !
 ! A37   A(13,12,20)           108.9065         estimate D2E/DX2                !
 ! A38   A(13,12,21)           108.9406         estimate D2E/DX2                !
 ! A39   A(20,12,21)           108.7731         estimate D2E/DX2                !
 ! A40   A(12,13,22)           110.3357         estimate D2E/DX2                !
 ! A41   A(12,13,23)           109.5831         estimate D2E/DX2                !
 ! A42   A(12,13,24)           110.3428         estimate D2E/DX2                !
 ! A43   A(22,13,23)           108.668          estimate D2E/DX2                !
 ! A44   A(22,13,24)           109.1898         estimate D2E/DX2                !
 ! A45   A(23,13,24)           108.6819         estimate D2E/DX2                !
 ! A46   A(1,27,28)            120.5686         estimate D2E/DX2                !
 ! A47   A(1,27,29)            120.5621         estimate D2E/DX2                !
 ! A48   A(28,27,29)           118.8693         estimate D2E/DX2                !
 ! D1    D(6,1,2,3)             -0.02           estimate D2E/DX2                !
 ! D2    D(6,1,2,25)           179.9993         estimate D2E/DX2                !
 ! D3    D(27,1,2,3)           179.9676         estimate D2E/DX2                !
 ! D4    D(27,1,2,25)           -0.0132         estimate D2E/DX2                !
 ! D5    D(2,1,6,5)              0.0213         estimate D2E/DX2                !
 ! D6    D(2,1,6,26)          -179.9964         estimate D2E/DX2                !
 ! D7    D(27,1,6,5)          -179.9662         estimate D2E/DX2                !
 ! D8    D(27,1,6,26)            0.0161         estimate D2E/DX2                !
 ! D9    D(2,1,27,28)         -154.3949         estimate D2E/DX2                !
 ! D10   D(2,1,27,29)           25.5526         estimate D2E/DX2                !
 ! D11   D(6,1,27,28)           25.5924         estimate D2E/DX2                !
 ! D12   D(6,1,27,29)         -154.4602         estimate D2E/DX2                !
 ! D13   D(1,2,3,4)             -0.0034         estimate D2E/DX2                !
 ! D14   D(1,2,3,14)          -179.9758         estimate D2E/DX2                !
 ! D15   D(25,2,3,4)           179.9776         estimate D2E/DX2                !
 ! D16   D(25,2,3,14)            0.0053         estimate D2E/DX2                !
 ! D17   D(2,3,4,5)              0.0251         estimate D2E/DX2                !
 ! D18   D(2,3,4,7)           -179.9265         estimate D2E/DX2                !
 ! D19   D(14,3,4,5)           179.9969         estimate D2E/DX2                !
 ! D20   D(14,3,4,7)             0.0454         estimate D2E/DX2                !
 ! D21   D(3,4,5,6)             -0.0236         estimate D2E/DX2                !
 ! D22   D(3,4,5,15)           179.9972         estimate D2E/DX2                !
 ! D23   D(7,4,5,6)            179.9242         estimate D2E/DX2                !
 ! D24   D(7,4,5,15)            -0.0549         estimate D2E/DX2                !
 ! D25   D(3,4,7,8)           -158.5907         estimate D2E/DX2                !
 ! D26   D(3,4,7,16)            21.5232         estimate D2E/DX2                !
 ! D27   D(5,4,7,8)             21.4614         estimate D2E/DX2                !
 ! D28   D(5,4,7,16)          -158.4247         estimate D2E/DX2                !
 ! D29   D(4,5,6,1)              0.0007         estimate D2E/DX2                !
 ! D30   D(4,5,6,26)          -179.9819         estimate D2E/DX2                !
 ! D31   D(15,5,6,1)           179.9814         estimate D2E/DX2                !
 ! D32   D(15,5,6,26)           -0.0012         estimate D2E/DX2                !
 ! D33   D(4,7,8,9)           -179.8239         estimate D2E/DX2                !
 ! D34   D(4,7,8,10)             0.1132         estimate D2E/DX2                !
 ! D35   D(16,7,8,9)             0.062          estimate D2E/DX2                !
 ! D36   D(16,7,8,10)          179.9991         estimate D2E/DX2                !
 ! D37   D(7,8,9,11)           179.8865         estimate D2E/DX2                !
 ! D38   D(7,8,9,17)            -0.0177         estimate D2E/DX2                !
 ! D39   D(10,8,9,11)           -0.0519         estimate D2E/DX2                !
 ! D40   D(10,8,9,17)         -179.9561         estimate D2E/DX2                !
 ! D41   D(8,9,11,12)         -179.8122         estimate D2E/DX2                !
 ! D42   D(8,9,11,18)           59.6976         estimate D2E/DX2                !
 ! D43   D(8,9,11,19)          -59.4215         estimate D2E/DX2                !
 ! D44   D(17,9,11,12)           0.092          estimate D2E/DX2                !
 ! D45   D(17,9,11,18)        -120.3981         estimate D2E/DX2                !
 ! D46   D(17,9,11,19)         120.4828         estimate D2E/DX2                !
 ! D47   D(9,11,12,13)         179.9009         estimate D2E/DX2                !
 ! D48   D(9,11,12,20)          59.5053         estimate D2E/DX2                !
 ! D49   D(9,11,12,21)         -59.6429         estimate D2E/DX2                !
 ! D50   D(18,11,12,13)        -59.5992         estimate D2E/DX2                !
 ! D51   D(18,11,12,20)       -179.9948         estimate D2E/DX2                !
 ! D52   D(18,11,12,21)         60.857          estimate D2E/DX2                !
 ! D53   D(19,11,12,13)         59.4801         estimate D2E/DX2                !
 ! D54   D(19,11,12,20)        -60.9156         estimate D2E/DX2                !
 ! D55   D(19,11,12,21)        179.9363         estimate D2E/DX2                !
 ! D56   D(11,12,13,22)        -60.3418         estimate D2E/DX2                !
 ! D57   D(11,12,13,23)       -179.9566         estimate D2E/DX2                !
 ! D58   D(11,12,13,24)         60.4071         estimate D2E/DX2                !
 ! D59   D(20,12,13,22)         60.3791         estimate D2E/DX2                !
 ! D60   D(20,12,13,23)        -59.2356         estimate D2E/DX2                !
 ! D61   D(20,12,13,24)       -178.8719         estimate D2E/DX2                !
 ! D62   D(21,12,13,22)        178.8807         estimate D2E/DX2                !
 ! D63   D(21,12,13,23)         59.266          estimate D2E/DX2                !
 ! D64   D(21,12,13,24)        -60.3704         estimate D2E/DX2                !
 --------------------------------------------------------------------------------
 Trust Radius=3.00D-01 FncErr=1.00D-07 GrdErr=1.00D-06
 Number of steps in this run=    151 maximum allowed number of steps=    174.
 GradGradGradGradGradGradGradGradGradGradGradGradGradGradGradGradGradGrad

                          Input orientation:                          
 ---------------------------------------------------------------------
 Center     Atomic      Atomic             Coordinates (Angstroms)
 Number     Number       Type             X           Y           Z
 ---------------------------------------------------------------------
      1          6           0       -4.190130    3.571560   -1.197170
      2          6           0       -4.234430    2.212140   -0.855690
      3          6           0       -3.110470    1.577250   -0.322770
      4          6           0       -1.905790    2.274410   -0.112360
      5          6           0       -1.868430    3.646130   -0.458810
      6          6           0       -2.995930    4.279390   -0.992430
      7          7           0       -0.796860    1.540900    0.439710
      8          6           0        0.298760    2.036950    1.093970
      9          7           0        1.255520    1.177430    1.545890
     10          8           0        0.437620    3.235270    1.280470
     11          6           0        2.439890    1.646620    2.244150
     12          6           0        3.347680    0.474820    2.635300
     13          6           0        4.594800    0.962210    3.367110
     14          1           0       -3.182660    0.526180   -0.071560
     15          1           0       -0.998440    4.264350   -0.336810
     16          1           0       -0.833460    0.515730    0.325830
     17          1           0        1.136240    0.164550    1.386400
     18          1           0        2.131320    2.193200    3.162670
     19          1           0        3.004140    2.340280    1.582250
     20          1           0        3.658650   -0.074400    1.719930
     21          1           0        2.789360   -0.221670    3.298140
     22          1           0        5.181710    1.645460    2.716860
     23          1           0        5.231730    0.093420    3.636320
     24          1           0        4.311610    1.497880    4.298180
     25          1           0       -5.138740    1.635010   -0.999950
     26          1           0       -2.929890    5.329900   -1.245860
     27          7           0       -5.335900    4.221390   -1.741870
     28          8           0       -5.199770    5.303260   -2.521400
     29          8           0       -6.567830    3.760330   -1.484100
 ---------------------------------------------------------------------
                    Distance matrix (angstroms):
                    1          2          3          4          5
     1  C    0.000000
     2  C    1.402353   0.000000
     3  C    2.430538   1.396558   0.000000
     4  C    2.842115   2.445196   1.407678   0.000000
     5  C    2.437422   2.794959   2.416906   1.415288   0.000000
     6  C    1.403230   2.413732   2.786238   2.445991   1.398937
     7  N    4.279864   3.734369   2.436286   1.439633   2.527369
     8  C    5.268252   4.937781   3.720393   2.524215   3.114049
     9  N    6.550675   6.080934   4.765880   3.734573   4.457843
    10  O    5.260025   5.238132   4.231826   2.890467   2.917493
    11  C    7.713964   7.380743   6.115586   4.983191   5.464948
    12  C    9.005343   8.526059   7.188410   6.195733   6.843868
    13  C   10.237986   9.866593   8.565318   7.489075   7.975866
    14  H    3.399461   2.136245   1.083082   2.165264   3.407529
    15  H    3.377434   3.866838   3.417803   2.198527   1.074226
    16  H    4.787991   3.979999   2.594664   2.105910   3.389134
    17  H    6.830283   6.169578   4.790775   3.993963   4.955224
    18  H    7.801847   7.527971   6.324875   5.199103   5.587855
    19  H    7.810169   7.639167   6.449788   5.194560   5.441793
    20  H    9.132680   8.611782   7.260961   6.311671   7.009841
    21  H    9.127414   8.515360   7.152279   6.317148   7.125276
    22  H   10.337353  10.087018   8.832002   7.657201   7.986992
    23  H   11.145920  10.689963   9.352457   8.351857   8.933315
    24  H   10.333373  10.005366   8.743383   7.662371   8.089303
    25  H    2.165406   1.082435   2.139109   3.413007   3.877159
    26  H    2.163870   3.402129   3.868732   3.416083   2.140380
    27  N    1.425400   2.456753   3.736022   4.267516   3.741726
    28  O    2.402445   3.641633   4.804404   5.082097   4.254196
    29  O    2.402378   2.869938   4.250631   5.081756   4.811301
                    6          7          8          9         10
     6  C    0.000000
     7  N    3.792923   0.000000
     8  C    4.498509   1.369126   0.000000
     9  N    5.842949   2.359663   1.363230   0.000000
    10  O    4.248003   2.258696   1.220670   2.230272   0.000000
    11  C    6.852377   3.707254   2.461648   1.452735   2.731588
    12  C    8.238724   4.809818   3.756576   2.461221   4.233686
    13  C    9.361007   6.162349   4.977770   3.809718   5.177163
    14  H    3.869038   2.642555   3.970034   4.768408   4.719489
    15  H    2.102387   2.839154   2.948079   4.260748   2.395176
    16  H    4.536433   1.032125   2.045989   2.508033   3.150060
    17  H    6.298061   2.554885   2.071900   1.032275   3.150970
    18  H    6.921397   4.051450   2.768070   2.100665   2.738103
    19  H    6.811018   4.048704   2.765774   2.100289   2.734795
    20  H    8.402132   4.909147   4.017273   2.715217   4.639189
    21  H    8.493416   4.913069   4.020301   2.716712   4.642425
    22  H    9.357896   6.398410   5.160449   4.123735   5.205488
    23  H   10.326764   6.975486   5.880055   4.621171   6.197156
    24  H    9.440736   6.402039   5.163383   4.125224   5.208925
    25  H    3.403592   4.575303   5.840588   6.897626   6.233533
    26  H    1.082663   4.663420   5.171316   6.523383   4.702121
    27  N    2.457740   5.705016   6.675564   7.970061   6.590941
    28  O    2.871057   6.504548   7.346667   8.673874   7.107107
    29  O    3.642751   6.475416   7.534357   8.778213   7.549494
                   11         12         13         14         15
    11  C    0.000000
    12  C    1.533035   0.000000
    13  C    2.524499   1.525911   0.000000
    14  H    6.183120   7.069305   8.514896   0.000000
    15  H    5.033486   6.487121   7.477131   4.337636   0.000000
    16  H    3.959000   4.776741   6.238168   2.382597   3.810310
    17  H    2.152155   2.558610   4.064617   4.572671   4.933018
    18  H    1.112495   2.170364   2.761497   6.440309   5.131415
    19  H    1.112499   2.169533   2.759529   6.656015   4.837921
    20  H    2.173038   1.111867   2.159662   7.097440   6.689052
    21  H    2.173369   1.111835   2.160079   6.897766   6.905408
    22  H    2.782271   2.177319   1.110909   8.887675   7.374126
    23  H    3.484959   2.167291   1.110383   9.205304   8.485130
    24  H    2.782894   2.177380   1.110869   8.729428   7.571864
    25  H    8.243783   9.304859  10.689512   2.432624   4.949269
    26  H    7.387913   8.834200   9.847699   4.951626   2.385847
    27  N    9.109375  10.421179  11.633690   4.591400   4.559561
    28  O    9.718327  11.088926  12.225092   5.735063   4.847983
    29  O    9.975301  11.228596  12.488716   4.890232   5.708626
                   16         17         18         19         20
    16  H    0.000000
    17  H    2.264477   0.000000
    18  H    4.433000   2.874150   0.000000
    19  H    4.431111   2.874232   1.811401   0.000000
    20  H    4.740340   2.555561   3.091318   2.505597   0.000000
    21  H    4.743755   2.556701   2.506585   3.090954   1.807789
    22  H    6.570813   4.508774   3.131077   2.551848   2.504296
    23  H    6.922732   4.673354   3.774382   3.772233   2.485014
    24  H    6.573882   4.509901   2.554705   3.129759   3.089627
    25  H    4.641758   6.872575   8.395996   8.571561   9.365570
    26  H    5.481009   7.081176   7.408770   7.221409   9.022817
    27  N    6.187024   8.254249   9.161192   9.173037  10.551768
    28  O    7.077558   9.045566   9.783967   9.639675  11.197308
    29  O    6.832736   8.973411   9.986169  10.150944  11.382085
                   21         22         23         24         25
    21  H    0.000000
    22  H    3.089887   0.000000
    23  H    2.485723   1.804643   0.000000
    24  H    2.504831   1.810919   1.804768   0.000000
    25  H    9.207367  10.969342  11.463775  10.835040   0.000000
    26  H    9.174840   9.750708  10.856724   9.892425   4.311810
    27  N   10.543355  11.710500  12.555472  11.703596   2.697903
    28  O   11.323343  12.189914  13.186210  12.306662   3.971724
    29  O   11.237578  12.655925  13.375147  12.526598   2.606470
                   26         27         28         29
    26  H    0.000000
    27  N    2.695126   0.000000
    28  O    2.603856   1.340388   0.000000
    29  O    3.969246   1.340400   2.308292   0.000000
 Stoichiometry    C10H13N3O3
 Framework group  C1[X(C10H13N3O3)]
 Deg. of freedom    81
 Full point group                 C1      NOp   1
 Largest Abelian subgroup         C1      NOp   1
 Largest concise Abelian subgroup C1      NOp   1
                         Standard orientation:                         
 ---------------------------------------------------------------------
 Center     Atomic      Atomic             Coordinates (Angstroms)
 Number     Number       Type             X           Y           Z
 ---------------------------------------------------------------------
      1          6           0        3.372952   -0.006146   -0.006214
      2          6           0        2.859865    1.298925    0.004893
      3          6           0        1.484136    1.521450   -0.085805
      4          6           0        0.574163    0.452558   -0.190582
      5          6           0        1.098956   -0.861797   -0.200713
      6          6           0        2.477519   -1.081576   -0.109684
      7          7           0       -0.826295    0.773607   -0.281070
      8          6           0       -1.895220   -0.031801    0.007411
      9          7           0       -3.160127    0.453281   -0.144584
     10          8           0       -1.738990   -1.177838    0.397575
     11          6           0       -4.331616   -0.355970    0.143801
     12          6           0       -5.621085    0.431419   -0.115978
     13          6           0       -6.855123   -0.414824    0.183066
     14          1           0        1.125274    2.543289   -0.074431
     15          1           0        0.488778   -1.742613   -0.276922
     16          1           0       -1.049697    1.727839   -0.604821
     17          1           0       -3.289754    1.422510   -0.475313
     18          1           0       -4.304638   -0.672968    1.209835
     19          1           0       -4.319745   -1.260684   -0.503505
     20          1           0       -5.652252    0.750251   -1.180694
     21          1           0       -5.639249    1.336668    0.529290
     22          1           0       -6.870671   -1.317191   -0.464707
     23          1           0       -7.771403    0.180414   -0.014599
     24          1           0       -6.858418   -0.729930    1.248302
     25          1           0        3.521076    2.152324    0.083480
     26          1           0        2.842411   -2.100834   -0.120863
     27          7           0        4.776777   -0.235539    0.085553
     28          8           0        5.319095   -1.353563   -0.416994
     29          8           0        5.577211    0.663659    0.674978
 ---------------------------------------------------------------------
 Rotational constants (GHZ):      2.4986738      0.1513420      0.1444899
 General basis read from cards:  (6D, 7F)
 There are   330 symmetry adapted cartesian basis functions of A   symmetry.
 There are   330 symmetry adapted basis functions of A   symmetry.
   330 basis functions,   564 primitive gaussians,   330 cartesian basis functions
    59 alpha electrons       59 beta electrons
       nuclear repulsion energy      1009.9975599384 Hartrees.
 NAtoms=   29 NActive=   29 NUniq=   29 SFac= 1.00D+00 NAtFMM=   60 NAOKFM=F Big=F
 Integral buffers will be    131072 words long.
 Raffenetti 2 integral format.
 Two-electron integral symmetry is turned on.
 One-electron integrals computed using PRISM.
 NBasis=   330 RedAO= T EigKep=  2.30D-06  NBF=   330
 NBsUse=   330 1.00D-06 EigRej= -1.00D+00 NBFU=   330
 ExpMin= 4.38D-02 ExpMax= 5.48D+03 ExpMxC= 8.25D+02 IAcc=3 IRadAn=         5 AccDes= 0.00D+00
 Harris functional with IExCor= 1009 and IRadAn=       5 diagonalized for initial guess.
 HarFok:  IExCor= 1009 AccDes= 0.00D+00 IRadAn=         5 IDoV= 1 UseB2=F ITyADJ=14
 ICtDFT=  3500011 ScaDFX=  1.000000  1.000000  1.000000  1.000000
 FoFCou: FMM=F IPFlag=           0 FMFlag=      100000 FMFlg1=           0
         NFxFlg=           0 DoJE=T BraDBF=F KetDBF=T FulRan=T
         wScrn=  0.000000 ICntrl=     500 IOpCl=  0 I1Cent=   200000004 NGrid=           0
         NMat0=    1 NMatS0=      1 NMatT0=    0 NMatD0=    1 NMtDS0=    0 NMtDT0=    0
 Petite list used in FoFCou.
 Requested convergence on RMS density matrix=1.00D-08 within 128 cycles.
 Requested convergence on MAX density matrix=1.00D-06.
 Requested convergence on             energy=1.00D-06.
 No special actions if energy rises.
 SCF Done:  E(RM062X) =  -778.404547809     A.U. after   18 cycles
            NFock= 18  Conv=0.40D-08     -V/T= 2.0098

 **********************************************************************

            Population analysis using the SCF density.

 **********************************************************************

 Orbital symmetries:
       Occupied  (A) (A) (A) (A) (A) (A) (A) (A) (A) (A) (A) (A)
                 (A) (A) (A) (A) (A) (A) (A) (A) (A) (A) (A) (A)
                 (A) (A) (A) (A) (A) (A) (A) (A) (A) (A) (A) (A)
                 (A) (A) (A) (A) (A) (A) (A) (A) (A) (A) (A) (A)
                 (A) (A) (A) (A) (A) (A) (A) (A) (A) (A) (A)
       Virtual   (A) (A) (A) (A) (A) (A) (A) (A) (A) (A) (A) (A)
                 (A) (A) (A) (A) (A) (A) (A) (A) (A) (A) (A) (A)
                 (A) (A) (A) (A) (A) (A) (A) (A) (A) (A) (A) (A)
                 (A) (A) (A) (A) (A) (A) (A) (A) (A) (A) (A) (A)
                 (A) (A) (A) (A) (A) (A) (A) (A) (A) (A) (A) (A)
                 (A) (A) (A) (A) (A) (A) (A) (A) (A) (A) (A) (A)
                 (A) (A) (A) (A) (A) (A) (A) (A) (A) (A) (A) (A)
                 (A) (A) (A) (A) (A) (A) (A) (A) (A) (A) (A) (A)
                 (A) (A) (A) (A) (A) (A) (A) (A) (A) (A) (A) (A)
                 (A) (A) (A) (A) (A) (A) (A) (A) (A) (A) (A) (A)
                 (A) (A) (A) (A) (A) (A) (A) (A) (A) (A) (A) (A)
                 (A) (A) (A) (A) (A) (A) (A) (A) (A) (A) (A) (A)
                 (A) (A) (A) (A) (A) (A) (A) (A) (A) (A) (A) (A)
                 (A) (A) (A) (A) (A) (A) (A) (A) (A) (A) (A) (A)
                 (A) (A) (A) (A) (A) (A) (A) (A) (A) (A) (A) (A)
                 (A) (A) (A) (A) (A) (A) (A) (A) (A) (A) (A) (A)
                 (A) (A) (A) (A) (A) (A) (A) (A) (A) (A) (A) (A)
                 (A) (A) (A) (A) (A) (A) (A) (A) (A) (A) (A) (A)
                 (A) (A) (A) (A) (A) (A) (A) (A) (A) (A) (A) (A)
                 (A) (A) (A) (A) (A) (A) (A) (A) (A) (A) (A) (A)
                 (A) (A) (A) (A) (A) (A) (A) (A) (A) (A) (A) (A)
                 (A) (A) (A) (A) (A) (A) (A) (A) (A) (A) (A) (A)
                 (A) (A) (A) (A) (A) (A) (A)
 The electronic state is 1-A.
 Alpha  occ. eigenvalues --  -19.68927 -19.68907 -19.61877 -15.00897 -14.83529
 Alpha  occ. eigenvalues --  -14.80992 -10.70121 -10.65220 -10.63373 -10.60331
 Alpha  occ. eigenvalues --  -10.60254 -10.59841 -10.59554 -10.58628 -10.57464
 Alpha  occ. eigenvalues --  -10.56108  -1.27609  -1.19577  -1.10861  -1.07408
 Alpha  occ. eigenvalues --   -1.04761  -1.00233  -0.92564  -0.89950  -0.88253
 Alpha  occ. eigenvalues --   -0.82694  -0.78756  -0.74136  -0.71408  -0.70109
 Alpha  occ. eigenvalues --   -0.68603  -0.65811  -0.64143  -0.62188  -0.58635
 Alpha  occ. eigenvalues --   -0.57719  -0.57582  -0.56355  -0.54773  -0.54319
 Alpha  occ. eigenvalues --   -0.53231  -0.52324  -0.51074  -0.49255  -0.48745
 Alpha  occ. eigenvalues --   -0.48294  -0.46478  -0.44435  -0.44323  -0.42046
 Alpha  occ. eigenvalues --   -0.42015  -0.39619  -0.39292  -0.36587  -0.35912
 Alpha  occ. eigenvalues --   -0.35828  -0.34078  -0.33573  -0.30743
 Alpha virt. eigenvalues --   -0.08713  -0.01701  -0.01124   0.01072   0.01221
 Alpha virt. eigenvalues --    0.02019   0.02571   0.03114   0.03199   0.04301
 Alpha virt. eigenvalues --    0.04453   0.05188   0.05620   0.06373   0.06656
 Alpha virt. eigenvalues --    0.07347   0.07511   0.08289   0.08664   0.08917
 Alpha virt. eigenvalues --    0.09259   0.09842   0.10130   0.10571   0.12203
 Alpha virt. eigenvalues --    0.12595   0.12844   0.13512   0.13980   0.14539
 Alpha virt. eigenvalues --    0.14686   0.14831   0.15812   0.16062   0.16688
 Alpha virt. eigenvalues --    0.17134   0.17816   0.18127   0.18547   0.18739
 Alpha virt. eigenvalues --    0.19568   0.19970   0.20057   0.20589   0.21163
 Alpha virt. eigenvalues --    0.21323   0.21774   0.22189   0.22478   0.22941
 Alpha virt. eigenvalues --    0.23375   0.23549   0.24212   0.24938   0.25156
 Alpha virt. eigenvalues --    0.25673   0.25810   0.26362   0.26896   0.27185
 Alpha virt. eigenvalues --    0.27364   0.27818   0.28540   0.28967   0.29537
 Alpha virt. eigenvalues --    0.30051   0.30239   0.30584   0.30945   0.32014
 Alpha virt. eigenvalues --    0.32188   0.32678   0.32880   0.32950   0.33582
 Alpha virt. eigenvalues --    0.34144   0.34890   0.35708   0.36031   0.36236
 Alpha virt. eigenvalues --    0.37290   0.37497   0.38457   0.38688   0.39442
 Alpha virt. eigenvalues --    0.40680   0.41835   0.42646   0.42919   0.44437
 Alpha virt. eigenvalues --    0.46900   0.47938   0.49849   0.53165   0.54404
 Alpha virt. eigenvalues --    0.56496   0.61321   0.64887   0.67079   0.67744
 Alpha virt. eigenvalues --    0.68946   0.69684   0.71237   0.72769   0.73884
 Alpha virt. eigenvalues --    0.74093   0.75048   0.76234   0.77227   0.77765
 Alpha virt. eigenvalues --    0.79383   0.79740   0.80081   0.81640   0.83580
 Alpha virt. eigenvalues --    0.83922   0.85190   0.86424   0.87115   0.87889
 Alpha virt. eigenvalues --    0.91147   0.91476   0.95622   0.96076   0.97931
 Alpha virt. eigenvalues --    0.98425   0.98846   1.00755   1.01794   1.02030
 Alpha virt. eigenvalues --    1.02437   1.03271   1.04383   1.05525   1.06944
 Alpha virt. eigenvalues --    1.08149   1.08990   1.09723   1.10555   1.10945
 Alpha virt. eigenvalues --    1.11834   1.13193   1.14281   1.14866   1.16033
 Alpha virt. eigenvalues --    1.16912   1.17775   1.18926   1.20888   1.24501
 Alpha virt. eigenvalues --    1.26507   1.27094   1.28586   1.30016   1.30245
 Alpha virt. eigenvalues --    1.32681   1.32752   1.35038   1.35872   1.36944
 Alpha virt. eigenvalues --    1.38113   1.38706   1.39333   1.39833   1.40786
 Alpha virt. eigenvalues --    1.43016   1.43720   1.44629   1.46216   1.47343
 Alpha virt. eigenvalues --    1.48087   1.49362   1.50979   1.52127   1.53064
 Alpha virt. eigenvalues --    1.53319   1.55944   1.57277   1.57976   1.61974
 Alpha virt. eigenvalues --    1.67808   1.74872   1.75322   1.79592   1.80993
 Alpha virt. eigenvalues --    1.81707   1.82606   1.83582   1.85830   1.86446
 Alpha virt. eigenvalues --    1.87693   1.88358   1.89527   1.89660   1.90438
 Alpha virt. eigenvalues --    1.91754   1.94740   1.95417   1.96236   1.97017
 Alpha virt. eigenvalues --    1.99473   2.01292   2.01860   2.02517   2.04521
 Alpha virt. eigenvalues --    2.05384   2.05589   2.08975   2.09769   2.11074
 Alpha virt. eigenvalues --    2.11526   2.13752   2.16510   2.17630   2.18332
 Alpha virt. eigenvalues --    2.19756   2.20044   2.23079   2.26130   2.27466
 Alpha virt. eigenvalues --    2.30304   2.33927   2.34228   2.36018   2.37563
 Alpha virt. eigenvalues --    2.38527   2.40097   2.40931   2.47157   2.49310
 Alpha virt. eigenvalues --    2.51952   2.55466   2.56528   2.60249   2.63061
 Alpha virt. eigenvalues --    2.63516   2.66283   2.68941   2.70251   2.72363
 Alpha virt. eigenvalues --    2.74356   2.76365   2.77457   2.82254   2.84027
 Alpha virt. eigenvalues --    2.90043   2.92648   2.98856   3.00069   3.00238
 Alpha virt. eigenvalues --    3.09953   3.17243   3.25962   3.30496   3.40379
 Alpha virt. eigenvalues --    4.10382   4.14692   4.23270   4.24411   4.25664
 Alpha virt. eigenvalues --    4.28728   4.34631   4.38503   4.39278   4.42373
 Alpha virt. eigenvalues --    4.45825   4.48442   4.55832   4.62420   4.63995
 Alpha virt. eigenvalues --    4.76339
          Condensed to atoms (all electrons):
               1          2          3          4          5          6
     1  C   11.466926  -0.375973  -0.300542  -2.180267  -1.693518   0.233275
     2  C   -0.375973  10.142398  -1.952208  -0.639086  -0.123400  -1.639901
     3  C   -0.300542  -1.952208  13.690252  -0.292509  -3.436787  -0.437900
     4  C   -2.180267  -0.639086  -0.292509  10.911596  -0.130962  -0.938075
     5  C   -1.693518  -0.123400  -3.436787  -0.130962  15.147293  -5.046228
     6  C    0.233275  -1.639901  -0.437900  -0.938075  -5.046228  13.837778
     7  N    0.013552   0.053019   0.363692  -0.033540  -0.202423  -0.067226
     8  C   -0.285706   0.133793  -0.727452  -0.716662   0.547110  -0.207729
     9  N   -0.009630   0.010869  -0.117787  -0.092745   0.015212   0.009316
    10  O   -0.024430   0.013224  -0.145679  -0.223910   0.231464   0.067791
    11  C   -0.014401   0.008428  -0.092379  -0.249649   0.042703  -0.023805
    12  C   -0.000597   0.000596   0.007088   0.011314  -0.013136   0.000222
    13  C   -0.000040  -0.000026  -0.001621  -0.003799   0.000825  -0.000366
    14  H    0.003363   0.059513   0.212971   0.022501   0.028128  -0.018307
    15  H    0.006368  -0.008266   0.021220  -0.002298   0.226293   0.056550
    16  H   -0.005536   0.032550  -0.106638   0.006502   0.034210   0.017595
    17  H   -0.000032   0.000023  -0.000836   0.018084   0.002650   0.000558
    18  H   -0.000047   0.000051  -0.001459  -0.003682   0.002868   0.000303
    19  H    0.000035  -0.000006   0.000100   0.000532   0.000474   0.000471
    20  H    0.000000  -0.000004  -0.000060  -0.000104   0.000396   0.000045
    21  H   -0.000001   0.000010   0.000197  -0.000052  -0.000531  -0.000047
    22  H   -0.000000   0.000000   0.000008   0.000048  -0.000051  -0.000004
    23  H   -0.000000  -0.000000  -0.000001  -0.000027   0.000004   0.000000
    24  H    0.000000  -0.000000  -0.000002   0.000050  -0.000000   0.000000
    25  H    0.061667   0.279073  -0.064121   0.020822  -0.015971   0.034109
    26  H    0.069089   0.038421  -0.022061   0.006148  -0.050991   0.278452
    27  N   -0.648674   0.022295   0.154650  -0.016879   0.094267   0.102663
    28  O   -0.059017   0.022121  -0.010735   0.004226   0.062345  -0.071000
    29  O   -0.039559  -0.096237   0.046692   0.010615  -0.008557   0.023235
               7          8          9         10         11         12
     1  C    0.013552  -0.285706  -0.009630  -0.024430  -0.014401  -0.000597
     2  C    0.053019   0.133793   0.010869   0.013224   0.008428   0.000596
     3  C    0.363692  -0.727452  -0.117787  -0.145679  -0.092379   0.007088
     4  C   -0.033540  -0.716662  -0.092745  -0.223910  -0.249649   0.011314
     5  C   -0.202423   0.547110   0.015212   0.231464   0.042703  -0.013136
     6  C   -0.067226  -0.207729   0.009316   0.067791  -0.023805   0.000222
     7  N    7.880424   0.079020  -0.450892  -0.130774  -0.119489   0.007758
     8  C    0.079020   6.021139   0.269773   0.692120  -0.522414   0.118477
     9  N   -0.450892   0.269773   7.748203  -0.190253   0.376546  -0.073210
    10  O   -0.130774   0.692120  -0.190253   8.331797  -0.056782   0.018841
    11  C   -0.119489  -0.522414   0.376546  -0.056782   6.554221  -0.372462
    12  C    0.007758   0.118477  -0.073210   0.018841  -0.372462   6.123535
    13  C   -0.000881  -0.028673  -0.000510  -0.001571  -0.018508   0.013471
    14  H   -0.006811  -0.002312   0.000361  -0.000006  -0.000442   0.000034
    15  H   -0.008312   0.021633  -0.000027  -0.006050   0.002638  -0.000031
    16  H    0.225795  -0.002898   0.027958   0.007629   0.007125   0.000264
    17  H    0.033471   0.032910   0.233071   0.007862  -0.077198  -0.003431
    18  H    0.001412  -0.004937  -0.057129   0.001106   0.416895  -0.049720
    19  H   -0.000231  -0.001510  -0.058482   0.001091   0.420069  -0.057848
    20  H    0.000673   0.011822   0.007988  -0.000181  -0.095150   0.423315
    21  H   -0.000274  -0.008128   0.007180  -0.000246  -0.067383   0.407293
    22  H    0.000028   0.001588   0.000692  -0.000056  -0.009311  -0.062174
    23  H    0.000011  -0.001708   0.000539   0.000008   0.027300  -0.083363
    24  H    0.000024   0.003027   0.000758  -0.000051  -0.007791  -0.062858
    25  H    0.000034   0.001946  -0.000002  -0.000001   0.000011   0.000000
    26  H   -0.000696  -0.000922  -0.000010   0.000126  -0.000024   0.000002
    27  N    0.000388   0.004326  -0.000032   0.000137   0.000096   0.000002
    28  O   -0.000405  -0.001604  -0.000010   0.000000  -0.000020   0.000000
    29  O    0.000124   0.002082  -0.000002  -0.000010   0.000013  -0.000000
              13         14         15         16         17         18
     1  C   -0.000040   0.003363   0.006368  -0.005536  -0.000032  -0.000047
     2  C   -0.000026   0.059513  -0.008266   0.032550   0.000023   0.000051
     3  C   -0.001621   0.212971   0.021220  -0.106638  -0.000836  -0.001459
     4  C   -0.003799   0.022501  -0.002298   0.006502   0.018084  -0.003682
     5  C    0.000825   0.028128   0.226293   0.034210   0.002650   0.002868
     6  C   -0.000366  -0.018307   0.056550   0.017595   0.000558   0.000303
     7  N   -0.000881  -0.006811  -0.008312   0.225795   0.033471   0.001412
     8  C   -0.028673  -0.002312   0.021633  -0.002898   0.032910  -0.004937
     9  N   -0.000510   0.000361  -0.000027   0.027958   0.233071  -0.057129
    10  O   -0.001571  -0.000006  -0.006050   0.007629   0.007862   0.001106
    11  C   -0.018508  -0.000442   0.002638   0.007125  -0.077198   0.416895
    12  C    0.013471   0.000034  -0.000031   0.000264  -0.003431  -0.049720
    13  C    5.548527  -0.000001   0.000010  -0.000034  -0.001197   0.004317
    14  H   -0.000001   0.487861  -0.000098   0.004788   0.000005   0.000000
    15  H    0.000010  -0.000098   0.425769  -0.000106   0.000001  -0.000000
    16  H   -0.000034   0.004788  -0.000106   0.341594   0.002520   0.000008
    17  H   -0.001197   0.000005   0.000001   0.002520   0.344741   0.002796
    18  H    0.004317   0.000000  -0.000000   0.000008   0.002796   0.490995
    19  H    0.004532  -0.000000   0.000000  -0.000000   0.002792  -0.034659
    20  H   -0.037159  -0.000000  -0.000000   0.000002   0.001151   0.003866
    21  H   -0.026606   0.000000   0.000000   0.000002   0.000967  -0.005322
    22  H    0.413696   0.000000   0.000000   0.000000   0.000001  -0.000325
    23  H    0.408572  -0.000000  -0.000000  -0.000000  -0.000003  -0.000060
    24  H    0.411474  -0.000000  -0.000000  -0.000000   0.000002   0.002709
    25  H    0.000000  -0.003879   0.000010  -0.000010   0.000000  -0.000000
    26  H   -0.000000   0.000012  -0.003953   0.000002  -0.000000  -0.000000
    27  N    0.000000  -0.000294  -0.000001   0.000017   0.000000   0.000000
    28  O   -0.000000   0.000016  -0.000034  -0.000000   0.000000  -0.000000
    29  O    0.000000  -0.000032   0.000026  -0.000000   0.000000  -0.000000
              19         20         21         22         23         24
     1  C    0.000035   0.000000  -0.000001  -0.000000  -0.000000   0.000000
     2  C   -0.000006  -0.000004   0.000010   0.000000  -0.000000  -0.000000
     3  C    0.000100  -0.000060   0.000197   0.000008  -0.000001  -0.000002
     4  C    0.000532  -0.000104  -0.000052   0.000048  -0.000027   0.000050
     5  C    0.000474   0.000396  -0.000531  -0.000051   0.000004  -0.000000
     6  C    0.000471   0.000045  -0.000047  -0.000004   0.000000   0.000000
     7  N   -0.000231   0.000673  -0.000274   0.000028   0.000011   0.000024
     8  C   -0.001510   0.011822  -0.008128   0.001588  -0.001708   0.003027
     9  N   -0.058482   0.007988   0.007180   0.000692   0.000539   0.000758
    10  O    0.001091  -0.000181  -0.000246  -0.000056   0.000008  -0.000051
    11  C    0.420069  -0.095150  -0.067383  -0.009311   0.027300  -0.007791
    12  C   -0.057848   0.423315   0.407293  -0.062174  -0.083363  -0.062858
    13  C    0.004532  -0.037159  -0.026606   0.413696   0.408572   0.411474
    14  H   -0.000000  -0.000000   0.000000   0.000000  -0.000000  -0.000000
    15  H    0.000000  -0.000000   0.000000   0.000000  -0.000000  -0.000000
    16  H   -0.000000   0.000002   0.000002   0.000000  -0.000000  -0.000000
    17  H    0.002792   0.001151   0.000967   0.000001  -0.000003   0.000002
    18  H   -0.034659   0.003866  -0.005322  -0.000325  -0.000060   0.002709
    19  H    0.493578  -0.005404   0.003907   0.002710  -0.000058  -0.000340
    20  H   -0.005404   0.510795  -0.033899  -0.004869  -0.003082   0.003954
    21  H    0.003907  -0.033899   0.511199   0.003955  -0.003058  -0.004872
    22  H    0.002710  -0.004869   0.003955   0.492393  -0.023962  -0.027784
    23  H   -0.000058  -0.003082  -0.003058  -0.023962   0.489173  -0.023917
    24  H   -0.000340   0.003954  -0.004872  -0.027784  -0.023917   0.491786
    25  H   -0.000000  -0.000000   0.000000   0.000000  -0.000000   0.000000
    26  H   -0.000000  -0.000000   0.000000   0.000000  -0.000000   0.000000
    27  N    0.000000  -0.000000   0.000000  -0.000000   0.000000  -0.000000
    28  O    0.000000  -0.000000   0.000000   0.000000  -0.000000  -0.000000
    29  O   -0.000000   0.000000  -0.000000  -0.000000   0.000000   0.000000
              25         26         27         28         29
     1  C    0.061667   0.069089  -0.648674  -0.059017  -0.039559
     2  C    0.279073   0.038421   0.022295   0.022121  -0.096237
     3  C   -0.064121  -0.022061   0.154650  -0.010735   0.046692
     4  C    0.020822   0.006148  -0.016879   0.004226   0.010615
     5  C   -0.015971  -0.050991   0.094267   0.062345  -0.008557
     6  C    0.034109   0.278452   0.102663  -0.071000   0.023235
     7  N    0.000034  -0.000696   0.000388  -0.000405   0.000124
     8  C    0.001946  -0.000922   0.004326  -0.001604   0.002082
     9  N   -0.000002  -0.000010  -0.000032  -0.000010  -0.000002
    10  O   -0.000001   0.000126   0.000137   0.000000  -0.000010
    11  C    0.000011  -0.000024   0.000096  -0.000020   0.000013
    12  C    0.000000   0.000002   0.000002   0.000000  -0.000000
    13  C    0.000000  -0.000000   0.000000  -0.000000   0.000000
    14  H   -0.003879   0.000012  -0.000294   0.000016  -0.000032
    15  H    0.000010  -0.003953  -0.000001  -0.000034   0.000026
    16  H   -0.000010   0.000002   0.000017  -0.000000  -0.000000
    17  H    0.000000  -0.000000   0.000000   0.000000   0.000000
    18  H   -0.000000  -0.000000   0.000000  -0.000000  -0.000000
    19  H   -0.000000  -0.000000   0.000000   0.000000  -0.000000
    20  H   -0.000000  -0.000000  -0.000000  -0.000000   0.000000
    21  H    0.000000   0.000000   0.000000   0.000000  -0.000000
    22  H    0.000000   0.000000  -0.000000   0.000000  -0.000000
    23  H   -0.000000  -0.000000   0.000000  -0.000000   0.000000
    24  H    0.000000   0.000000  -0.000000  -0.000000   0.000000
    25  H    0.438085  -0.000107  -0.016539  -0.001104   0.007627
    26  H   -0.000107   0.434790  -0.015409   0.006952  -0.001167
    27  N   -0.016539  -0.015409   7.004553   0.354902   0.355402
    28  O   -0.001104   0.006952   0.354902   7.791860  -0.062109
    29  O    0.007627  -0.001167   0.355402  -0.062109   7.786609
 Mulliken charges:
               1
     1  C   -0.216303
     2  C    0.018726
     3  C   -0.786093
     4  C    0.511811
     5  C    0.286312
     6  C   -0.211775
     7  N   -0.637470
     8  C    0.571889
     9  N   -0.657744
    10  O   -0.593196
    11  C   -0.128834
    12  C   -0.353382
    13  C   -0.684431
    14  H    0.212629
    15  H    0.268655
    16  H    0.406662
    17  H    0.399092
    18  H    0.230012
    19  H    0.228250
    20  H    0.215906
    21  H    0.215708
    22  H    0.213419
    23  H    0.213633
    24  H    0.213831
    25  H    0.258351
    26  H    0.261347
    27  N   -0.395871
    28  O   -0.036382
    29  O   -0.024753
 Sum of Mulliken charges =  -0.00000
 Mulliken charges with hydrogens summed into heavy atoms:
               1
     1  C   -0.216303
     2  C    0.277077
     3  C   -0.573463
     4  C    0.511811
     5  C    0.554968
     6  C    0.049571
     7  N   -0.230808
     8  C    0.571889
     9  N   -0.258652
    10  O   -0.593196
    11  C    0.329428
    12  C    0.078231
    13  C   -0.043548
    27  N   -0.395871
    28  O   -0.036382
    29  O   -0.024753
 Electronic spatial extent (au):  <R**2>=           7102.3243
 Charge=             -0.0000 electrons
 Dipole moment (field-independent basis, Debye):
    X=             -8.7912    Y=              4.5712    Z=             -1.6957  Tot=             10.0527
 Quadrupole moment (field-independent basis, Debye-Ang):
   XX=           -121.5078   YY=            -88.7715   ZZ=            -98.2967
   XY=             -2.8154   XZ=              0.7930   YZ=             -1.9716
 Traceless Quadrupole moment (field-independent basis, Debye-Ang):
   XX=            -18.6491   YY=             14.0872   ZZ=              4.5620
   XY=             -2.8154   XZ=              0.7930   YZ=             -1.9716
 Octapole moment (field-independent basis, Debye-Ang**2):
  XXX=           -367.0441  YYY=             15.8688  ZZZ=              3.3097  XYY=              3.2266
  XXY=             35.6122  XXZ=            -14.1416  XZZ=             -2.9418  YZZ=             -1.9531
  YYZ=             -5.4956  XYZ=             -7.7339
 Hexadecapole moment (field-independent basis, Debye-Ang**3):
 XXXX=          -9955.2091 YYYY=           -525.1502 ZZZZ=           -164.3888 XXXY=             67.5150
 XXXZ=            -53.7469 YYYX=            -14.6320 YYYZ=             -1.6665 ZZZX=              0.6690
 ZZZY=             -1.1088 XXYY=          -1566.6569 XXZZ=          -1490.8322 YYZZ=           -128.7976
 XXYZ=            -47.5709 YYXZ=             19.5478 ZZXY=             -6.3215
 N-N= 1.009997559938D+03 E-N=-3.831757734097D+03  KE= 7.708478878324D+02
 Calling FoFJK, ICntrl=      2127 FMM=F ISym2X=0 I1Cent= 0 IOpClX= 0 NMat=1 NMatS=1 NMatT=0.
 ***** Axes restored to original set *****
 -------------------------------------------------------------------
 Center     Atomic                   Forces (Hartrees/Bohr)
 Number     Number              X              Y              Z
 -------------------------------------------------------------------
      1        6           0.013199404   -0.006700307    0.006295903
      2        6           0.001788992   -0.001722465    0.002512048
      3        6          -0.002077686    0.008028910   -0.004937389
      4        6           0.013490862   -0.001616397    0.008337956
      5        6          -0.009614326   -0.001716805   -0.002175284
      6        6           0.000476239   -0.006891920   -0.000808401
      7        7          -0.026707049   -0.023556604   -0.019891578
      8        6           0.017800322    0.030383283    0.010349373
      9        7          -0.014368251   -0.035348147   -0.011077718
     10        8          -0.002452137    0.010867680   -0.000516802
     11        6           0.005775484    0.005869173    0.003802551
     12        6          -0.005175777   -0.004608154   -0.003306639
     13        6           0.005450900    0.000354443    0.003036986
     14        1           0.000373244   -0.002057825    0.001153125
     15        1           0.008500783   -0.003247347    0.005106054
     16        1          -0.004918286    0.016432307    0.000977291
     17        1           0.005354729    0.016014146    0.004526122
     18        1           0.003177834   -0.002133186   -0.010398975
     19        1          -0.006905478   -0.003772240    0.007786140
     20        1          -0.004671532    0.002585305    0.007678154
     21        1           0.003736966    0.004039104   -0.007560326
     22        1          -0.004277360   -0.005778729    0.008079044
     23        1          -0.004411461    0.010368201   -0.001443647
     24        1           0.004935486   -0.004211995   -0.008624268
     25        1          -0.002982655    0.001871162   -0.001074540
     26        1          -0.002299071    0.001124716   -0.001432782
     27        7          -0.108017491    0.061130495   -0.051396626
     28        8          -0.000084737   -0.096479742    0.073003512
     29        8           0.114902052    0.030772940   -0.017999283
 -------------------------------------------------------------------
 Cartesian Forces:  Max     0.114902052 RMS     0.024991757

 GradGradGradGradGradGradGradGradGradGradGradGradGradGradGradGradGradGrad
 Berny optimization.
 FormGI is forming the generalized inverse of G from B-inverse, IUseBI=4.
 GSVD:  received Info=                   1 from GESDD.
 Internal  Forces:  Max     0.120334967 RMS     0.015863508
 Search for a local minimum.
 Step number   1 out of a maximum of  151
 All quantities printed in internal units (Hartrees-Bohrs-Radians)
 Mixed Optimization -- RFO/linear search
 Second derivative matrix not updated -- first step.
 ITU=  0
     Eigenvalues ---    0.00329   0.00423   0.00994   0.01168   0.01356
     Eigenvalues ---    0.01356   0.01468   0.01635   0.01694   0.01836
     Eigenvalues ---    0.01955   0.01989   0.02050   0.02065   0.02071
     Eigenvalues ---    0.02083   0.02099   0.02100   0.02138   0.02178
     Eigenvalues ---    0.03755   0.04435   0.04933   0.05553   0.05673
     Eigenvalues ---    0.05783   0.08033   0.09179   0.11975   0.12669
     Eigenvalues ---    0.16000   0.16000   0.16000   0.16000   0.16000
     Eigenvalues ---    0.16000   0.16000   0.16000   0.16000   0.21964
     Eigenvalues ---    0.22000   0.22000   0.22000   0.22004   0.22959
     Eigenvalues ---    0.24000   0.25000   0.25000   0.25000   0.25000
     Eigenvalues ---    0.25000   0.25000   0.29145   0.29804   0.32337
     Eigenvalues ---    0.32337   0.32403   0.32407   0.32504   0.32508
     Eigenvalues ---    0.32560   0.35625   0.35674   0.35702   0.36701
     Eigenvalues ---    0.37889   0.39636   0.40687   0.41193   0.41657
     Eigenvalues ---    0.42436   0.42459   0.44150   0.44727   0.45373
     Eigenvalues ---    0.46024   0.51145   0.52300   0.57115   0.57118
     Eigenvalues ---    0.95087
 RFO step:  Lambda=-6.38509651D-02 EMin= 3.28957998D-03
 Linear search not attempted -- first point.
 Maximum step size (   0.300) exceeded in Quadratic search.
    -- Step size scaled by   0.855
 Iteration  1 RMS(Cart)=  0.06621685 RMS(Int)=  0.00076128
 Iteration  2 RMS(Cart)=  0.00122545 RMS(Int)=  0.00002120
 Iteration  3 RMS(Cart)=  0.00000170 RMS(Int)=  0.00002115
 Iteration  4 RMS(Cart)=  0.00000000 RMS(Int)=  0.00002115
 Variable       Old X    -DE/DX   Delta X   Delta X   Delta X     New X
                                 (Linear)    (Quad)   (Total)
    R1        2.65006  -0.00942   0.00000  -0.01552  -0.01551   2.63455
    R2        2.65172  -0.00818   0.00000  -0.01358  -0.01359   2.63814
    R3        2.69362  -0.00893   0.00000  -0.01589  -0.01589   2.67773
    R4        2.63911  -0.01327   0.00000  -0.02150  -0.02149   2.61763
    R5        2.04551   0.00164   0.00000   0.00332   0.00332   2.04883
    R6        2.66013  -0.00495   0.00000  -0.00834  -0.00834   2.65179
    R7        2.04673   0.00224   0.00000   0.00456   0.00456   2.05128
    R8        2.67451  -0.01398   0.00000  -0.02421  -0.02422   2.65029
    R9        2.72051  -0.03658   0.00000  -0.06795  -0.06795   2.65257
   R10        2.64361  -0.01154   0.00000  -0.01899  -0.01900   2.62461
   R11        2.02999   0.00560   0.00000   0.01110   0.01110   2.04110
   R12        2.04594   0.00129   0.00000   0.00262   0.00262   2.04855
   R13        2.58727   0.01320   0.00000   0.01962   0.01962   2.60689
   R14        1.95043  -0.01626   0.00000  -0.02845  -0.02845   1.92198
   R15        2.57613   0.00001   0.00000   0.00002   0.00002   2.57615
   R16        2.30673   0.01031   0.00000   0.00869   0.00869   2.31542
   R17        2.74527  -0.00152   0.00000  -0.00293  -0.00293   2.74234
   R18        1.95072  -0.01703   0.00000  -0.02982  -0.02982   1.92089
   R19        2.89702  -0.00525   0.00000  -0.01264  -0.01264   2.88438
   R20        2.10231  -0.01052   0.00000  -0.02322  -0.02322   2.07909
   R21        2.10232  -0.01049   0.00000  -0.02315  -0.02315   2.07916
   R22        2.88355   0.00212   0.00000   0.00501   0.00501   2.88856
   R23        2.10112  -0.00890   0.00000  -0.01963  -0.01963   2.08150
   R24        2.10106  -0.00891   0.00000  -0.01964  -0.01964   2.08142
   R25        2.09931  -0.01054   0.00000  -0.02318  -0.02318   2.07614
   R26        2.09832  -0.01099   0.00000  -0.02413  -0.02413   2.07419
   R27        2.09924  -0.01052   0.00000  -0.02312  -0.02312   2.07612
   R28        2.53297  -0.12033   0.00000  -0.16200  -0.16200   2.37097
   R29        2.53299  -0.11965   0.00000  -0.16109  -0.16109   2.37190
    A1        2.07184   0.01200   0.00000   0.03387   0.03387   2.10571
    A2        2.10551  -0.00688   0.00000  -0.01931  -0.01932   2.08619
    A3        2.10583  -0.00513   0.00000  -0.01455  -0.01455   2.09128
    A4        2.10388  -0.00805   0.00000  -0.02278  -0.02276   2.08112
    A5        2.10690   0.00067   0.00000  -0.00142  -0.00143   2.10547
    A6        2.07241   0.00738   0.00000   0.02420   0.02419   2.09659
    A7        2.11839  -0.00385   0.00000  -0.01031  -0.01030   2.10810
    A8        2.06694   0.00263   0.00000   0.00786   0.00785   2.07479
    A9        2.09785   0.00122   0.00000   0.00245   0.00244   2.10029
   A10        2.05557   0.01075   0.00000   0.03015   0.03014   2.08571
   A11        2.05351  -0.00028   0.00000  -0.00119  -0.00119   2.05232
   A12        2.17410  -0.01047   0.00000  -0.02897  -0.02897   2.14513
   A13        2.10695  -0.00597   0.00000  -0.01717  -0.01720   2.08976
   A14        2.15479  -0.00585   0.00000  -0.02514  -0.02513   2.12967
   A15        2.02144   0.01182   0.00000   0.04231   0.04232   2.06376
   A16        2.10973  -0.00489   0.00000  -0.01375  -0.01377   2.09597
   A17        2.10274  -0.00023   0.00000  -0.00332  -0.00331   2.09942
   A18        2.07072   0.00511   0.00000   0.01707   0.01708   2.08780
   A19        2.23326  -0.01179   0.00000  -0.03550  -0.03550   2.19775
   A20        2.02245   0.00081   0.00000  -0.00167  -0.00167   2.02078
   A21        2.02748   0.01098   0.00000   0.03717   0.03717   2.06465
   A22        2.08473  -0.02465   0.00000  -0.06713  -0.06713   2.01760
   A23        2.11732   0.00742   0.00000   0.02022   0.02022   2.13754
   A24        2.08113   0.01722   0.00000   0.04692   0.04692   2.12805
   A25        2.12691  -0.00646   0.00000  -0.01947  -0.01947   2.10744
   A26        2.07869   0.00708   0.00000   0.02442   0.02442   2.10311
   A27        2.07758  -0.00061   0.00000  -0.00495  -0.00495   2.07263
   A28        1.93749  -0.00417   0.00000  -0.01095  -0.01092   1.92657
   A29        1.90646   0.00075   0.00000   0.00092   0.00095   1.90741
   A30        1.90594   0.00072   0.00000   0.00088   0.00092   1.90686
   A31        1.90617   0.00266   0.00000   0.01116   0.01114   1.91732
   A32        1.90505   0.00275   0.00000   0.01166   0.01164   1.91669
   A33        1.90241  -0.00273   0.00000  -0.01383  -0.01388   1.88852
   A34        1.94141  -0.00092   0.00000  -0.00107  -0.00107   1.94034
   A35        1.91041  -0.00010   0.00000  -0.00143  -0.00144   1.90898
   A36        1.91089  -0.00012   0.00000  -0.00160  -0.00161   1.90929
   A37        1.90078   0.00135   0.00000   0.00717   0.00716   1.90794
   A38        1.90137   0.00132   0.00000   0.00697   0.00696   1.90834
   A39        1.89845  -0.00155   0.00000  -0.01021  -0.01024   1.88821
   A40        1.92572   0.00218   0.00000   0.00797   0.00793   1.93365
   A41        1.91259   0.00339   0.00000   0.01362   0.01355   1.92613
   A42        1.92585   0.00220   0.00000   0.00804   0.00800   1.93385
   A43        1.89661  -0.00256   0.00000  -0.00910  -0.00917   1.88745
   A44        1.90572  -0.00279   0.00000  -0.01195  -0.01196   1.89376
   A45        1.89686  -0.00258   0.00000  -0.00918  -0.00925   1.88761
   A46        2.10432  -0.01041   0.00000  -0.02836  -0.02836   2.07596
   A47        2.10421  -0.01040   0.00000  -0.02834  -0.02834   2.07587
   A48        2.07466   0.02082   0.00000   0.05670   0.05670   2.13136
    D1       -0.00035   0.00000   0.00000   0.00001   0.00000  -0.00035
    D2        3.14158  -0.00019   0.00000  -0.00193  -0.00191   3.13968
    D3        3.14103   0.00006   0.00000   0.00063   0.00062  -3.14154
    D4       -0.00023  -0.00013   0.00000  -0.00131  -0.00129  -0.00152
    D5        0.00037  -0.00014   0.00000  -0.00143  -0.00143  -0.00106
    D6       -3.14153  -0.00002   0.00000  -0.00023  -0.00024   3.14141
    D7       -3.14100  -0.00020   0.00000  -0.00205  -0.00205   3.14013
    D8        0.00028  -0.00008   0.00000  -0.00086  -0.00086  -0.00058
    D9       -2.69470  -0.00243   0.00000  -0.02681  -0.02680  -2.72150
   D10        0.44598  -0.00255   0.00000  -0.02811  -0.02810   0.41787
   D11        0.44667  -0.00237   0.00000  -0.02617  -0.02618   0.42049
   D12       -2.69584  -0.00249   0.00000  -0.02747  -0.02748  -2.72332
   D13       -0.00006   0.00004   0.00000   0.00038   0.00040   0.00034
   D14       -3.14117  -0.00009   0.00000  -0.00093  -0.00090   3.14112
   D15        3.14120   0.00022   0.00000   0.00228   0.00230  -3.13969
   D16        0.00009   0.00010   0.00000   0.00097   0.00099   0.00109
   D17        0.00044   0.00006   0.00000   0.00062   0.00061   0.00105
   D18       -3.14031   0.00049   0.00000   0.00506   0.00513  -3.13518
   D19        3.14154   0.00020   0.00000   0.00195   0.00193  -3.13971
   D20        0.00079   0.00062   0.00000   0.00639   0.00646   0.00725
   D21       -0.00041  -0.00020   0.00000  -0.00203  -0.00203  -0.00245
   D22        3.14154  -0.00050   0.00000  -0.00509  -0.00506   3.13649
   D23        3.14027  -0.00065   0.00000  -0.00679  -0.00679   3.13348
   D24       -0.00096  -0.00095   0.00000  -0.00985  -0.00981  -0.01077
   D25       -2.76793  -0.00205   0.00000  -0.02313  -0.02309  -2.79102
   D26        0.37565  -0.00215   0.00000  -0.02421  -0.02416   0.35149
   D27        0.37457  -0.00161   0.00000  -0.01839  -0.01844   0.35614
   D28       -2.76503  -0.00171   0.00000  -0.01947  -0.01951  -2.78454
   D29        0.00001   0.00025   0.00000   0.00248   0.00244   0.00246
   D30       -3.14128   0.00013   0.00000   0.00131   0.00126  -3.14001
   D31        3.14127   0.00052   0.00000   0.00530   0.00534  -3.13658
   D32       -0.00002   0.00041   0.00000   0.00413   0.00416   0.00414
   D33       -3.13852  -0.00042   0.00000  -0.00430  -0.00430   3.14037
   D34        0.00198  -0.00024   0.00000  -0.00252  -0.00253  -0.00055
   D35        0.00108  -0.00033   0.00000  -0.00326  -0.00325  -0.00216
   D36        3.14158  -0.00015   0.00000  -0.00147  -0.00147   3.14010
   D37        3.13961   0.00015   0.00000   0.00153   0.00154   3.14115
   D38       -0.00031   0.00007   0.00000   0.00064   0.00064   0.00034
   D39       -0.00091  -0.00002   0.00000  -0.00020  -0.00020  -0.00111
   D40       -3.14083  -0.00010   0.00000  -0.00109  -0.00110   3.14126
   D41       -3.13831  -0.00009   0.00000  -0.00081  -0.00081  -3.13913
   D42        1.04192  -0.00126   0.00000  -0.00837  -0.00837   1.03355
   D43       -1.03710   0.00118   0.00000   0.00735   0.00735  -1.02975
   D44        0.00161  -0.00000   0.00000   0.00010   0.00010   0.00171
   D45       -2.10134  -0.00117   0.00000  -0.00745  -0.00746  -2.10880
   D46        2.10282   0.00127   0.00000   0.00827   0.00827   2.11109
   D47        3.13986   0.00002   0.00000   0.00023   0.00023   3.14009
   D48        1.03856  -0.00101   0.00000  -0.00709  -0.00708   1.03148
   D49       -1.04096   0.00101   0.00000   0.00719   0.00719  -1.03378
   D50       -1.04020   0.00006   0.00000   0.00172   0.00170  -1.03850
   D51       -3.14150  -0.00097   0.00000  -0.00560  -0.00562   3.13607
   D52        1.06215   0.00105   0.00000   0.00868   0.00865   1.07081
   D53        1.03812  -0.00004   0.00000  -0.00155  -0.00153   1.03659
   D54       -1.06318  -0.00107   0.00000  -0.00887  -0.00884  -1.07202
   D55        3.14048   0.00095   0.00000   0.00541   0.00543  -3.13728
   D56       -1.05316   0.00030   0.00000   0.00213   0.00214  -1.05102
   D57       -3.14083  -0.00002   0.00000  -0.00015  -0.00015  -3.14098
   D58        1.05430  -0.00033   0.00000  -0.00237  -0.00239   1.05192
   D59        1.05381   0.00049   0.00000   0.00437   0.00439   1.05820
   D60       -1.03386   0.00017   0.00000   0.00210   0.00210  -1.03176
   D61       -3.12190  -0.00015   0.00000  -0.00013  -0.00014  -3.12205
   D62        3.12206   0.00016   0.00000   0.00022   0.00023   3.12229
   D63        1.03439  -0.00016   0.00000  -0.00206  -0.00205   1.03233
   D64       -1.05366  -0.00047   0.00000  -0.00428  -0.00429  -1.05796
         Item               Value     Threshold  Converged?
 Maximum Force            0.120335     0.000450     NO 
 RMS     Force            0.015864     0.000300     NO 
 Maximum Displacement     0.317563     0.001800     NO 
 RMS     Displacement     0.066499     0.001200     NO 
 Predicted change in Energy=-3.430901D-02
 GradGradGradGradGradGradGradGradGradGradGradGradGradGradGradGradGradGrad

                          Input orientation:                          
 ---------------------------------------------------------------------
 Center     Atomic      Atomic             Coordinates (Angstroms)
 Number     Number       Type             X           Y           Z
 ---------------------------------------------------------------------
      1          6           0       -4.126811    3.538985   -1.169181
      2          6           0       -4.202832    2.184470   -0.848005
      3          6           0       -3.092398    1.552660   -0.312747
      4          6           0       -1.900449    2.259650   -0.092345
      5          6           0       -1.835490    3.622361   -0.417495
      6          6           0       -2.948084    4.255915   -0.955768
      7          7           0       -0.814476    1.551391    0.445560
      8          6           0        0.275163    2.104392    1.085808
      9          7           0        1.210718    1.217356    1.528902
     10          8           0        0.399009    3.312407    1.249026
     11          6           0        2.402418    1.677831    2.217195
     12          6           0        3.284251    0.493461    2.603684
     13          6           0        4.546943    0.958692    3.328713
     14          1           0       -3.158245    0.498007   -0.064421
     15          1           0       -0.940667    4.206559   -0.260568
     16          1           0       -0.851786    0.540120    0.343733
     17          1           0        1.085773    0.219327    1.381980
     18          1           0        2.108635    2.235007    3.119251
     19          1           0        2.961085    2.359663    1.558759
     20          1           0        3.568939   -0.061741    1.695959
     21          1           0        2.717035   -0.186443    3.258793
     22          1           0        5.141759    1.624038    2.687990
     23          1           0        5.170993    0.097352    3.599661
     24          1           0        4.290934    1.499251    4.250261
     25          1           0       -5.118923    1.628325   -1.012192
     26          1           0       -2.895395    5.308941   -1.207798
     27          7           0       -5.259071    4.191476   -1.717002
     28          8           0       -5.088945    5.223392   -2.410098
     29          8           0       -6.399783    3.717108   -1.495256
 ---------------------------------------------------------------------
                    Distance matrix (angstroms):
                    1          2          3          4          5
     1  C    0.000000
     2  C    1.394146   0.000000
     3  C    2.397702   1.385189   0.000000
     4  C    2.784414   2.424385   1.403266   0.000000
     5  C    2.412910   2.803066   2.423728   1.402471   0.000000
     6  C    1.396041   2.424229   2.782426   2.414149   1.388883
     7  N    4.186823   3.681719   2.400825   1.403678   2.465006
     8  C    5.149797   4.878369   3.687931   2.479000   3.003167
     9  N    6.415515   5.990953   4.692644   3.659806   4.341877
    10  O    5.136352   5.181382   4.210198   2.862705   2.804702
    11  C    7.586980   7.299415   6.050560   4.918043   5.355619
    12  C    8.856273   8.416061   7.091483   6.104843   6.717834
    13  C   10.105591   9.772720   8.483664   7.413838   7.865409
    14  H    3.377301   2.132914   1.085492   2.164767   3.411148
    15  H    3.379756   3.882737   3.416995   2.177140   1.080103
    16  H    4.691257   3.918371   2.544906   2.060738   3.323756
    17  H    6.685775   6.066627   4.701808   3.905647   4.832446
    18  H    7.679310   7.454951   6.268569   5.136897   5.476262
    19  H    7.685748   7.559425   6.387366   5.135237   5.339206
    20  H    8.966539   8.480426   7.142451   6.204925   6.873656
    21  H    8.962366   8.388777   7.037748   6.207629   6.981946
    22  H   10.220136  10.006933   8.764180   7.597826   7.894259
    23  H   11.001630  10.583307   9.257889   8.265092   8.812153
    24  H   10.217108   9.930050   8.679717   7.600635   7.989281
    25  H    2.158600   1.084195   2.145169   3.406357   3.887258
    26  H    2.156530   3.406048   3.866469   3.395929   2.143019
    27  N    1.416991   2.428759   3.691850   4.201405   3.705876
    28  O    2.302782   3.529927   4.675400   4.931760   4.137480
    29  O    2.303140   2.755814   4.125768   4.933189   4.690769
                    6          7          8          9         10
     6  C    0.000000
     7  N    3.718932   0.000000
     8  C    4.380230   1.379508   0.000000
     9  N    5.718572   2.320909   1.363241   0.000000
    10  O    4.117568   2.284575   1.225267   2.264164   0.000000
    11  C    6.733654   3.674654   2.446876   1.451184   2.760949
    12  C    8.103565   4.751450   3.735459   2.445142   4.255135
    13  C    9.241423   6.116263   4.958967   3.799556   5.202925
    14  H    3.867886   2.619724   3.961287   4.705739   4.722293
    15  H    2.124962   2.750357   2.776703   4.094630   2.207514
    16  H    4.459855   1.017069   2.065826   2.473297   3.173266
    17  H    6.166938   2.502444   2.073228   1.016493   3.171193
    18  H    6.801490   4.020016   2.741089   2.090713   2.753426
    19  H    6.696036   4.018379   2.739164   2.090345   2.750979
    20  H    8.255023   4.835289   3.989157   2.687974   4.651137
    21  H    8.342102   4.837966   3.991557   2.689269   4.653425
    22  H    9.254691   6.364786   5.146016   4.118490   5.235922
    23  H   10.196323   6.920146   5.858056   4.607194   6.215617
    24  H    9.333023   6.367391   5.148434   4.119829   5.238513
    25  H    3.408805   4.545242   5.807273   6.833038   6.196516
    26  H    1.084048   4.602500   5.057886   6.410207   4.568942
    27  N    2.433986   5.603673   6.545183   7.825564   6.448562
    28  O    2.763037   6.317394   7.122021   8.440960   6.867219
    29  O    3.534909   6.297043   7.336052   8.562360   7.342918
                   11         12         13         14         15
    11  C    0.000000
    12  C    1.526347   0.000000
    13  C    2.520242   1.528560   0.000000
    14  H    6.125253   6.973132   8.431815   0.000000
    15  H    4.869291   6.311971   7.317475   4.325446   0.000000
    16  H    3.923530   4.713424   6.183169   2.342673   3.716969
    17  H    2.135034   2.530023   4.039322   4.492375   4.764709
    18  H    1.100208   2.163531   2.760108   6.394761   4.960690
    19  H    1.100247   2.163103   2.758696   6.598991   4.684511
    20  H    2.158371   1.101481   2.159551   6.976193   6.510217
    21  H    2.158571   1.101441   2.159811   6.784626   6.712910
    22  H    2.780024   2.176154   1.098644   8.816676   7.235974
    23  H    3.474786   2.169947   1.097615   9.108361   8.315008
    24  H    2.780601   2.176290   1.098634   8.666558   7.419349
    25  H    8.185473   9.218233  10.617007   2.453599   4.966896
    26  H    7.278898   8.712306   9.741303   4.951918   2.435868
    27  N    8.971885  10.263138  11.492086   4.559189   4.557416
    28  O    9.492280  10.845307  11.998832   5.617746   4.781489
    29  O    9.768300  10.998806  12.276414   4.787219   5.618359
                   16         17         18         19         20
    16  H    0.000000
    17  H    2.221487   0.000000
    18  H    4.397754   2.850846   0.000000
    19  H    4.396022   2.851154   1.782511   0.000000
    20  H    4.661927   2.518669   3.071367   2.500301   0.000000
    21  H    4.664971   2.519542   2.500609   3.071211   1.784304
    22  H    6.526331   4.486635   3.123957   2.563522   2.509928
    23  H    6.860830   4.649947   3.765422   3.763911   2.493185
    24  H    6.529047   4.487571   2.565725   3.122978   3.079355
    25  H    4.607731   6.798206   8.347124   8.510651   9.255774
    26  H    5.415279   6.961381   7.294706   7.116912   8.891774
    27  N    6.083025   8.101772   9.027746   9.036432  10.376508
    28  O    6.889858   8.806116   9.555591   9.421027  10.943093
    29  O    6.652474   8.749087   9.792011   9.939593  11.128296
                   21         22         23         24         25
    21  H    0.000000
    22  H    3.079439   0.000000
    23  H    2.493721   1.778418   0.000000
    24  H    2.510325   1.783303   1.778512   0.000000
    25  H    9.106972  10.907473  11.379607  10.782183   0.000000
    26  H    9.035987   9.661859  10.739597   9.795278   4.304565
    27  N   10.370293  11.583305  12.402218  11.578380   2.661980
    28  O   11.060560  11.983871  12.948353  12.091805   3.857402
    29  O   10.997958  12.453420  13.150805  12.337799   2.497392
                   26         27         28         29
    26  H    0.000000
    27  N    2.663641   0.000000
    28  O    2.502900   1.254662   0.000000
    29  O    3.859702   1.255157   2.196389   0.000000
 Stoichiometry    C10H13N3O3
 Framework group  C1[X(C10H13N3O3)]
 Deg. of freedom    81
 Full point group                 C1      NOp   1
 Largest Abelian subgroup         C1      NOp   1
 Largest concise Abelian subgroup C1      NOp   1
                         Standard orientation:                         
 ---------------------------------------------------------------------
 Center     Atomic      Atomic             Coordinates (Angstroms)
 Number     Number       Type             X           Y           Z
 ---------------------------------------------------------------------
      1          6           0        3.314701   -0.002657   -0.007722
      2          6           0        2.842232    1.308721    0.018809
      3          6           0        1.478595    1.538369   -0.061831
      4          6           0        0.575388    0.469758   -0.168809
      5          6           0        1.061411   -0.845584   -0.192908
      6          6           0        2.428709   -1.076296   -0.113774
      7          7           0       -0.791020    0.779532   -0.254126
      8          6           0       -1.834436   -0.079535    0.022150
      9          7           0       -3.084110    0.443787   -0.129095
     10          8           0       -1.655858   -1.237411    0.380914
     11          6           0       -4.262481   -0.362162    0.131330
     12          6           0       -5.529188    0.453293   -0.114071
     13          6           0       -6.782566   -0.379849    0.153163
     14          1           0        1.117148    2.561688   -0.040193
     15          1           0        0.402756   -1.698194   -0.269398
     16          1           0       -1.012142    1.727584   -0.548632
     17          1           0       -3.207135    1.407621   -0.427669
     18          1           0       -4.239854   -0.712651    1.173973
     19          1           0       -4.252437   -1.243117   -0.527729
     20          1           0       -5.541029    0.804791   -1.157895
     21          1           0       -5.529940    1.335271    0.545692
     22          1           0       -6.815840   -1.257109   -0.507386
     23          1           0       -7.684684    0.218649   -0.027785
     24          1           0       -6.805451   -0.726975    1.195264
     25          1           0        3.530394    2.142286    0.102959
     26          1           0        2.802492   -2.093663   -0.134044
     27          7           0        4.708455   -0.244658    0.074445
     28          8           0        5.167330   -1.315377   -0.391573
     29          8           0        5.444560    0.620144    0.608941
[...]
 .00018994,0.00060109,0.00059699,0.00021298,0.00072212,0.00032553,0.000
 17876,0.00414169,-0.00777345,0.00307416,-0.10409278,0.22768270,-0.0000
 4919,0.00002177,-0.00002692,0.00001061,-0.00002289,0.00000834,-0.00005
 777,0.00001222,-0.00002934,0.00014221,-0.00013114,0.00007290,-0.000029
 40,0.00005258,-0.00002056,0.00003010,-0.00000648,0.00001555,-0.0003426
 1,0.00011712,-0.00018870,0.00026571,-0.00051681,0.00013452,-0.00090927
 ,0.00109360,-0.00008741,-0.00007660,0.00018503,0.00000363,-0.00150047,
 -0.00190718,-0.00016953,-0.00383817,0.00852192,-0.00594306,-0.05569888
 ,0.09485551,-0.10344473,0.00000330,0.00000146,0.00000242,0.00001174,-0
 .00001242,0.00000708,0.00001382,0.00002005,0.00001311,0.00002687,0.000
 03611,0.00004382,-0.00013055,0.00028747,0.00010009,0.00007623,-0.00042
 202,0.00031128,0.00028692,0.00018757,-0.00021837,0.00029417,-0.0003268
 9,0.00048427,-0.01229126,0.01906981,-0.01091752,0.06267609,-0.10349695
 ,0.10835812,0.00000926,-0.00000342,0.00000374,-0.00000128,0.00000418,-
 0.00000039,0.00000769,-0.00000479,0.00000739,-0.00001678,0.00002174,-0
 .00001720,0.00000116,-0.00000805,0.00000963,-0.00000543,0.00000197,-0.
 00000425,0.00007692,-0.00001103,0.00004180,0.00000306,0.00001542,0.000
 05936,0.00004486,0.00010454,0.00030896,0.00002333,0.00010711,0.0000305
 5,0.00120764,-0.00155318,-0.00032223,0.00286856,-0.02365855,-0.0221855
 5,-0.05094779,0.02069011,0.01904727,0.00000099,0.00000037,-0.00000156,
 -0.00000047,0.00000209,-0.00000377,0.00001179,-0.00001067,-0.00000520,
 0.00026750,0.00003592,0.00021399,-0.00026908,0.00072923,0.00018696,-0.
 00001737,0.00020530,0.00004670,-0.00574007,-0.00167613,-0.00272914,0.0
 0134521,0.00015276,0.00063513,-0.00226587,0.01538059,0.01156937,-0.002
 13631,0.01004350,0.01107084,0.05553505,-0.00003550,0.00001723,-0.00001
 563,0.00000965,-0.00001402,0.00000647,-0.00003961,-0.00000042,-0.00001
 196,0.00010149,-0.00007502,0.00003754,-0.00002008,0.00003645,-0.000014
 20,0.00001802,-0.00000367,0.00001083,-0.00019308,0.00004311,-0.0000766
 6,0.00026745,-0.00017769,0.00007867,-0.00013255,0.00043894,0.00018504,
 -0.00011925,0.00014340,-0.00002243,0.00044739,0.00055423,0.00074478,0.
 00067728,-0.00719738,-0.00569891,0.02012572,-0.19674363,-0.13270113,0.
 00000420,0.00000188,-0.00000150,0.00000915,-0.00000972,0.00000208,0.00
 002007,-0.00000232,-0.00000303,0.00018698,-0.00013665,0.00012340,-0.00
 017040,0.00047033,-0.00033623,-0.00014094,-0.00002612,0.00002583,-0.00
 197407,0.00056739,-0.00016648,-0.00003628,-0.00012727,0.00022057,-0.00
 052601,0.00934577,0.00818650,0.00207984,-0.01800055,-0.01760867,-0.020
 57167,0.21090282,0.00000166,0.00000032,-0.00000153,0.00000247,0.000001
 12,0.00000194,0.00000015,-0.00000371,0.00000054,-0.00000081,-0.0000020
 9,0.00000461,-0.00000376,-0.00000230,-0.00000609,-0.00000201,0.0000031
 3,0.00000422,0.00002558,0.00004408,0.00002714,0.00001080,-0.00026782,-
 0.00002802,-0.00011079,0.00059144,0.00013743,0.00005463,0.00021655,0.0
 0005557,0.00055614,-0.00088378,-0.00010666,0.00096827,-0.00763228,-0.0
 0779904,0.01837032,-0.13267756,-0.16925749,0.00000160,0.00000228,-0.00
 000146,-0.00000372,-0.00000226,-0.00000519,0.00001246,-0.00000794,0.00
 000003,0.00024156,-0.00003543,0.00017613,-0.00063616,0.00041072,-0.000
 09843,-0.00001500,-0.00004795,-0.00007879,-0.00233338,-0.00026801,0.00
 049110,-0.00011491,0.00049317,0.00061689,0.00185136,-0.01887729,-0.015
 99682,-0.00091730,0.01191324,0.01148238,-0.01795961,0.14703025,0.18038
 293,0.00457520,-0.00084422,-0.00007058,-0.24084957,-0.13213286,-0.0709
 7349,-0.01231572,-0.01310609,-0.00562205,-0.00026719,0.00215276,-0.004
 05455,-0.00020975,0.00088486,0.00025644,0.00191452,0.00079372,-0.00158
 057,-0.00080204,-0.00073419,-0.00030693,0.00001991,0.00039277,0.000120
 42,-0.00012155,-0.00004734,-0.00006073,0.00002519,-0.00012004,0.000003
 94,0.00001185,0.00003509,-0.00000560,-0.00000977,-0.00001437,-0.000003
 14,-0.00000122,0.00000645,-0.00000232,0.00003586,0.00026917,0.00211011
 ,-0.00016181,-0.00000048,0.00024742,-0.00003741,-0.00006885,-0.0000365
 5,0.00000160,-0.00001390,-0.00000242,-0.00000161,-0.00000075,-0.000000
 12,-0.00000487,-0.00000215,0.00000039,-0.00000013,0.00000236,0.0000022
 2,0.00000052,-0.00000028,-0.00000066,-0.00000006,-0.00000039,0.0000000
 8,-0.00000212,-0.00000077,-0.00000102,0.00000038,0.00000058,0.00000072
 ,0.25157586,-0.02511678,-0.01052940,-0.00902781,-0.13041174,-0.1483186
 5,-0.04246715,0.01250736,0.01250543,0.00443146,0.00239213,-0.00088106,
 0.00241307,0.00081126,-0.00039064,0.00026634,0.00135260,-0.00556323,0.
 00223417,0.00062770,0.00070642,0.00022607,0.00001370,-0.00028493,-0.00
 003378,0.00011763,0.00003429,0.00006552,-0.00001116,0.00006914,-0.0000
 1216,-0.00001343,-0.00003255,-0.00000025,0.00000945,0.00001317,0.00000
 189,0.00000125,-0.00000642,0.00000214,-0.00001861,0.00064021,-0.000818
 57,0.00000158,0.00004894,-0.00010988,0.00000073,0.00002793,0.00000853,
 -0.00000170,0.00001394,-0.00000244,0.00000061,0.00000086,0.00000036,0.
 00000486,0.00000183,0.00000011,0.00000028,-0.00000188,-0.00000216,-0.0
 0000105,0.00000021,0.00000112,-0.00000041,0.00000053,-0.00000014,0.000
 00300,-0.00000005,0.00000161,-0.00000044,-0.00000001,-0.00000068,0.140
 16108,0.15109692,0.00359637,0.00193819,0.00634321,-0.07123017,-0.04323
 109,-0.06552087,-0.00948310,-0.00715902,0.00130023,-0.00413293,0.00229
 423,0.00582062,0.00027757,0.00026524,-0.00101368,-0.00168472,0.0019889
 9,0.00408406,-0.00049183,-0.00045639,-0.00018533,0.00015386,0.00024277
 ,-0.00015220,-0.00006433,-0.00001328,-0.00005949,-0.00000117,-0.000087
 75,0.00003812,-0.00000058,0.00001513,0.00001732,-0.00000701,-0.0000045
 3,0.00000448,-0.00000083,0.00000319,-0.00000135,0.00215044,-0.00067892
 ,-0.00364813,0.00026587,-0.00011201,-0.00057345,-0.00004386,-0.0000151
 8,0.00004700,-0.00000690,-0.00000492,0.00000891,0.00000054,-0.00000216
 ,0.,-0.00000333,0.00000081,-0.00000384,-0.00000019,-0.00000087,-0.0000
 0011,0.00000128,0.00000099,-0.00000254,0.00000155,0.00000064,-0.000000
 77,-0.00000154,0.,-0.00000029,-0.00000027,-0.00000095,-0.00000016,0.08
 033715,0.04456994,0.05675833,0.00653022,-0.02385498,0.00412613,-0.0035
 1189,-0.00260342,-0.00353189,-0.00118268,0.00017358,-0.00012326,-0.002
 43013,0.00152306,-0.00491555,0.00424329,0.02440241,-0.00405489,-0.0551
 8367,0.00363366,-0.00706285,0.00026550,0.00114704,-0.00006066,0.000394
 33,0.00044272,0.00013339,-0.00009218,-0.00009480,-0.00001201,0.0000031
 3,-0.00037203,0.00002932,0.00002625,0.00002071,-0.00000480,-0.00000902
 ,-0.00000502,-0.00000174,0.00000087,0.00000341,-0.00000145,-0.00003314
 ,0.00003877,0.00025856,-0.00008921,-0.00004149,0.00215742,-0.00034638,
 0.00019168,-0.00002257,0.00003002,-0.00001707,-0.00000608,-0.00000443,
 -0.00000029,-0.00000564,-0.00001242,0.00000054,0.00000242,0.00000169,-
 0.00000150,-0.00000070,-0.00000003,-0.00000167,0.00000298,-0.00000212,
 0.00000061,0.00000133,-0.00000059,-0.00000186,0.00000015,-0.00000017,0
 .00000035,-0.00000181,0.00038478,-0.00141835,0.00013137,0.05241701,0.0
 0056702,-0.01297898,0.00298253,-0.00303887,0.00024320,-0.00064375,0.00
 024927,0.00073142,-0.00014367,0.00071223,0.00093380,0.00137710,-0.0009
 0856,-0.00538022,0.00113119,0.00189048,-0.34916752,0.04708576,-0.00009
 777,-0.00024771,-0.00001130,-0.00009533,-0.00016559,-0.00001583,0.0000
 1426,0.00003257,-0.00000449,-0.00002991,0.00011023,-0.00001456,0.00000
 389,-0.00000263,0.00000485,0.00000217,-0.00000018,0.00000016,0.0000001
 7,0.00000067,0.00000074,0.00006079,-0.00007167,-0.00005194,0.00031233,
 0.00064869,-0.00068176,0.00008752,-0.00000961,-0.00001096,-0.00000661,
 0.00000272,0.00000268,0.00000232,0.00000048,0.00000052,0.00000165,-0.0
 0000026,0.00000050,-0.00000045,-0.00000024,-0.00000038,-0.00000015,0.0
 0000026,-0.00000032,0.00000018,-0.00000013,0.00000037,-0.00000066,0.00
 000058,-0.00000048,0.00000034,-0.00000058,-0.00000032,0.00015201,-0.00
 050843,0.00023027,-0.00414132,0.36744686,0.00045050,-0.00800481,0.0067
 2450,-0.00340912,-0.00048255,0.00364736,-0.00019761,-0.00019521,-0.001
 03567,-0.00483331,0.00173404,0.00562328,-0.00028897,0.01255086,0.00298
 091,-0.00679802,0.04778186,-0.05127871,0.00018108,0.00060119,-0.000150
 27,0.00011851,0.00025440,0.00016816,-0.00003466,-0.00005041,-0.0000403
 5,-0.00005862,-0.00016300,0.00000613,0.00000020,0.00000865,0.00002312,
 -0.00000387,-0.00000240,0.00000113,-0.00000036,0.00000259,0.00000062,0
 .00024836,-0.00006191,-0.00048585,0.00225678,-0.00078485,-0.00369074,-
 0.00003676,0.00004404,-0.00031067,0.00001941,-0.00000284,-0.00000832,-
 0.00000350,0.00000118,-0.00000313,-0.00000325,-0.00000084,-0.00000223,
 0.00000076,-0.00000307,-0.00000148,0.00000096,0.00000184,-0.00000062,0
 .00000075,0.00000073,-0.00000080,-0.00000059,-0.00000064,-0.00000004,-
 0.00000070,-0.00000134,-0.00000160,-0.00010667,-0.00047831,0.00060081,
 0.01193193,-0.05282056,0.04099480,-0.12673133,0.00822232,-0.02525183,-
 0.00659850,0.02838511,-0.00448793,0.01326044,-0.00275289,0.00250925,-0
 .01139582,0.00338511,-0.00448277,0.00299972,-0.01212255,-0.00103878,-0
 .03843171,0.01090424,-0.01626973,0.01271822,-0.00334305,0.00635375,-0.
 00950669,-0.00326263,-0.00390054,0.00313409,-0.00166094,0.00225155,0.0
 0193488,0.00235407,0.00070672,-0.00110923,-0.00047097,-0.00067617,0.00
 014594,0.00034571,-0.00004370,-0.00001677,-0.00021100,0.00003976,0.001
 05176,-0.00092598,0.00003895,-0.00013000,0.00057659,-0.00066077,0.0003
 1177,0.00061343,0.00005397,0.00001800,0.00050917,-0.00026760,0.0000682
 2,0.00005403,0.00000456,0.00036119,0.00008572,0.00006929,-0.00000568,-
 0.00004066,0.00000005,-0.00003838,-0.00001103,-0.00000840,0.00000061,0
 .00004393,-0.00002564,0.00013083,-0.00005098,0.00007692,-0.00001348,0.
 00005150,-0.00000627,-0.00153183,-0.00378643,0.00176775,-0.00042945,0.
 00053304,0.00169938,0.70208705,0.00745211,-0.12023798,0.01037079,0.034
 26448,-0.01310490,0.01654735,-0.00593317,-0.00885658,-0.00005864,0.003
 72103,-0.00700438,0.00233245,-0.01006913,0.00138587,-0.00335253,0.0057
 1802,0.02270320,-0.00173086,-0.00726747,0.00157558,-0.00352787,0.00539
 357,0.00238858,0.00219249,-0.00178942,0.00077409,-0.00123227,-0.001265
 43,-0.00161530,-0.00046893,0.00066784,0.00030850,0.00037303,-0.0000947
 2,-0.00017527,0.00002388,0.00001693,0.00011904,-0.00001953,0.00133636,
 -0.00025560,0.00083253,-0.00103818,0.00099711,-0.00042024,-0.00015181,
 -0.00034183,-0.00003883,0.00002431,-0.00025663,0.00012378,-0.00004460,
 -0.00002551,-0.00001997,-0.00022063,-0.00004728,-0.00002189,0.00000994
 ,0.00000712,-0.00001537,0.00001582,0.00000387,0.00001991,-0.00000987,-
 0.00002003,0.00002142,-0.00006840,0.00002078,-0.00003820,0.00000702,-0
 .00003175,-0.00001025,-0.00032038,-0.00235156,-0.00040463,-0.00282337,
 -0.00382757,-0.00138532,0.16426852,0.98191159,-0.02513161,0.01072600,-
 0.08676418,-0.00538421,0.01388743,-0.01071534,0.00291630,0.00146967,0.
 01000345,-0.00488151,0.00229539,-0.00431237,-0.00129902,-0.00435621,0.
 00937651,-0.01550346,0.00053778,-0.01349269,0.00732894,-0.00192946,0.0
 0221667,-0.00493741,-0.00178761,-0.00227048,0.00160399,-0.00082718,0.0
 0137811,0.00122290,0.00119114,0.00029701,-0.00062488,-0.00025077,-0.00
 031919,0.00008636,0.00019286,-0.00001365,-0.00000985,-0.00011574,0.000
 02243,-0.00028516,-0.00019004,0.00111807,-0.00049370,0.00026280,0.0008
 9704,0.00015338,0.00037088,0.00011048,-0.00003898,0.00028643,-0.000121
 84,0.00005557,0.00001007,0.00000892,0.00019010,0.00005164,0.00001245,-
 0.00000742,-0.00002238,-0.00000025,-0.00001656,-0.00000560,-0.00000773
 ,0.00000428,0.00002470,-0.00001673,0.00007003,-0.00002611,0.00004080,-
 0.00000883,0.00002688,-0.00000307,0.00124446,-0.00199149,-0.00331624,0
 .00218176,0.00018123,-0.00329207,0.18724876,-0.03846859,0.32509999,0.0
 0686041,0.03760113,-0.01086724,-0.00366863,-0.00314353,-0.00298804,-0.
 00171994,0.00223417,-0.00057399,0.00208921,0.00056949,0.00064592,0.001
 06410,0.00142494,0.00071658,-0.00524739,0.00105692,-0.00340300,-0.0023
 8668,0.00054245,-0.00117478,0.00214179,0.00040944,0.00090772,-0.000816
 01,0.00045998,-0.00055885,-0.00060966,-0.00033841,-0.00029576,0.000310
 01,0.00013471,0.00017171,-0.00003814,-0.00008630,0.00001404,0.00000471
 ,0.00005607,-0.00000914,-0.00063509,0.00035969,-0.00008824,0.00008466,
 -0.00005020,0.00007866,-0.00004145,-0.00007981,0.00001420,0.00000411,-
 0.00011532,0.00006321,-0.00001400,-0.00001725,0.00000287,-0.00008665,-
 0.00002669,-0.00001269,0.00000134,0.00000966,-0.00000219,0.00000928,0.
 00000371,0.00000231,0.00000035,-0.00001212,0.00000741,-0.00003534,0.00
 001484,-0.00002115,0.00000361,-0.00001490,0.00000122,0.00012261,0.0006
 7673,-0.00021992,-0.00212674,0.00371525,-0.00148371,-0.12634764,0.0068
 8607,-0.02273107,0.12075809,0.02394775,-0.04869453,0.02093857,0.003257
 75,0.00479290,0.00135584,0.00385292,0.00007333,0.00160074,-0.00456304,
 0.00160877,-0.00213649,0.00274763,-0.00166013,0.00127333,-0.00977566,-
 0.00470679,-0.00341132,0.00562174,-0.00069418,0.00253198,-0.00406055,-
 0.00200741,-0.00165167,0.00131992,-0.00048142,0.00090270,0.00091979,0.
 00141551,0.00031560,-0.00048862,-0.00022920,-0.00027300,0.00007314,0.0
 0013103,-0.00001454,-0.00001286,-0.00008903,0.00001428,0.00055209,-0.0
 0035787,0.00021388,0.00017253,-0.00012305,0.00009044,-0.00007287,0.000
 26693,-0.00006882,-0.00004529,0.00018750,-0.00009180,0.00003657,0.0000
 1828,0.00001644,0.00016294,0.00003313,0.00001567,-0.00000775,-0.000004
 50,0.00001178,-0.00001242,-0.00000318,-0.00001568,0.00000765,0.0000153
 2,-0.00001604,0.00005093,-0.00001551,0.00002844,-0.00000475,0.00002401
 ,0.00000769,-0.00073116,0.00169491,-0.00053389,0.00240465,0.00158964,0
 .00085814,0.00950199,-0.58583282,0.08117754,0.02837188,0.72774416,-0.0
 0878449,0.02717054,0.01018110,-0.00395548,-0.00153792,0.00239470,-0.00
 080835,0.00081668,-0.00170290,0.00147598,0.00006908,0.00097323,0.00045
 662,0.00077971,-0.00073727,-0.00172980,0.00146511,0.00081913,-0.001973
 71,0.00036458,-0.00079137,0.00155851,0.00048057,0.00068005,-0.00055254
 ,0.00027530,-0.00043275,-0.00044275,-0.00034035,-0.00014239,0.00022041
 ,0.00009431,0.00011251,-0.00002974,-0.00006038,0.00000612,0.00000540,0
 .00003787,-0.00000843,-0.00012454,0.00013418,-0.00061773,0.00002877,-0
 .00001060,-0.00001207,-0.00000163,-0.00008567,-0.00001471,0.00001624,-
 0.00008508,0.00003293,-0.00001304,-0.00000788,-0.00000098,-0.00006653,
 -0.00001863,-0.00000340,0.00000283,0.00000773,-0.00000107,0.00000434,0
 .00000074,0.00000467,-0.00000293,-0.00000875,0.00000725,-0.00002354,0.
 00000890,-0.00001395,0.00000304,-0.00000911,0.00000028,-0.00000686,0.0
 0010692,0.00036552,-0.00128898,0.00143162,-0.00090618,-0.02311430,0.07
 994162,-0.10112082,0.03723542,-0.09294084,0.06011028,-0.05506337,-0.02
 067519,-0.03018983,-0.00055687,-0.00618259,-0.00012223,-0.00295594,-0.
 00013017,-0.00100207,0.00350164,-0.00364697,0.00185139,-0.00355119,0.0
 0228314,-0.00136100,0.00215358,0.00754163,-0.00191852,-0.00505129,0.00
 166885,-0.00242975,0.00406510,0.00065081,0.00174375,-0.00149136,0.0009
 4307,-0.00111364,-0.00109214,-0.00047252,-0.00050017,0.00054081,0.0002
 2708,0.00032988,-0.00006872,-0.00017122,0.00002592,0.00000739,0.000103
 67,-0.00002195,-0.00018057,0.00030539,-0.00009948,-0.00038080,0.000496
 87,0.00003221,-0.00019889,-0.00023498,-0.00005499,-0.00002354,-0.00023
 661,0.00013268,-0.00002805,-0.00002841,0.00000767,-0.00016293,-0.00004
 756,-0.00003228,0.00000018,0.00002502,0.00000202,0.00001884,0.00000716
 ,-0.00000071,0.00000220,-0.00002297,0.00001111,-0.00006615,0.00002760,
 -0.00003936,0.00000710,-0.00002533,0.00000660,-0.00235160,0.00209817,-
 0.00131108,0.00115719,0.00001472,0.00035104,-0.41593623,-0.19868543,-0
 .12295319,0.01031906,-0.06322690,0.00191167,0.46738658,-0.00668825,0.0
 1809616,-0.00293966,0.00468396,-0.00978436,0.00386847,-0.00136644,0.00
 240992,-0.00110252,0.00165831,0.00026009,0.00069594,0.00102120,0.00164
 771,0.00003062,0.00091268,-0.00139584,0.00119761,-0.00050786,0.0007489
 7,-0.00021232,0.00023124,-0.00017600,0.00008949,-0.00000947,0.00011062
 ,-0.00006629,0.00000792,0.00011315,0.00000965,-0.00001716,-0.00002561,
 0.00001311,0.00000401,-0.00001478,-0.00000008,-0.00000281,0.00000252,-
 0.00000195,-0.00013782,0.00001957,-0.00007122,0.00012539,-0.00012385,-
 0.00000454,-0.00012760,-0.00005995,-0.00007133,-0.00002234,-0.00002656
 ,0.00001696,-0.00000172,0.00000149,0.00000463,-0.00000083,0.00000054,-
 0.00001015,-0.00000324,0.00000820,0.00000713,0.00000294,0.00000101,-0.
 00000640,0.00000324,-0.00000198,-0.00000281,-0.00000289,0.00000245,-0.
 00000213,0.00000050,0.00000127,0.00000568,0.00328737,0.00201409,0.0011
 5520,0.00139397,0.00062020,0.00059855,-0.20119535,-0.26821032,-0.06272
 126,-0.08064260,-0.09469580,-0.01808025,0.27739367,0.34845711,-0.03229
 964,-0.00930850,0.00519775,-0.00175988,-0.00105241,0.00112096,-0.00080
 369,-0.00053888,-0.00104058,0.00118287,-0.00165083,0.00110534,-0.00118
 410,0.00059943,-0.00193162,-0.00093346,0.00422228,0.00293121,-0.002264
 04,0.00067484,-0.00090815,0.00178488,0.00029093,0.00074989,-0.00066305
 ,0.00039805,-0.00052545,-0.00054761,-0.00018781,-0.00018313,0.00025586
 ,0.00010435,0.00013592,-0.00003143,-0.00007952,0.00000533,0.00000405,0
 .00004740,-0.00000950,-0.00003975,0.00012720,-0.00008336,0.00008085,0.
 00017166,-0.00052559,-0.00005688,-0.00010693,-0.00005853,0.00000838,-0
 .00010593,0.00004315,-0.00001551,-0.00000710,0.00000180,-0.00007478,-0
 .00002501,-0.00000672,0.00000149,0.00001246,0.00000170,0.00000632,0.00
 000244,0.00000195,-0.00000113,-0.00001136,0.00000679,-0.00002932,0.000
 01193,-0.00001788,0.00000395,-0.00001060,0.00000315,-0.00148911,0.0006
 1557,-0.00091018,0.00013814,-0.00002916,0.00043788,-0.12258622,-0.0615
 6533,-0.12481528,0.00456848,-0.01019900,0.03081823,0.15674432,0.077599
 84,0.08845491\\0.00000412,0.00000154,0.00000351,-0.00000101,-0.0000036
 1,-0.00000102,-0.00000509,0.00000216,-0.00000096,0.00000688,-0.0000049
 2,0.00001255,0.00000351,-0.00000492,0.00000011,-0.00000207,0.00000479,
 -0.00000391,-0.00000119,0.00001333,-0.00000421,-0.00001413,0.00001970,
 -0.00000514,0.00001099,-0.00001433,0.00000676,-0.00000605,-0.00000493,
 -0.00000778,0.00000643,0.00000220,0.00000430,0.00000166,-0.00000032,0.
 00000070,-0.00000267,-0.00000107,-0.00000271,-0.00000108,0.00000121,0.
 00000377,0.00000291,0.00000069,-0.00000253,0.00000268,-0.00000300,0.00
 000246,-0.00000505,-0.00000556,-0.00000074,-0.00000042,0.00000005,-0.0
 0000209,-0.00000086,-0.00000446,-0.00000322,-0.00000195,-0.00000181,0.
 00000082,-0.00000053,0.00000015,0.00000208,0.00000112,-0.00000252,-0.0
 0000206,-0.00000042,-0.00000183,0.00000085,0.00000160,0.00000118,-0.00
 000047,-0.00000100,0.00000278,0.00000313,0.00000190,-0.00000053,-0.000
 00171,-0.00000431,0.00000466,-0.00000661,0.00000389,-0.00000050,0.0000
 0101,0.00000016,-0.00000014,0.00000313\\\@


 WHEN ALL ELSE FAILS, LOOK AT THE SCHRODINGER EQUATION.
     -- RUSSELL T. PACK, APRIL 1978
 Job cpu time:       0 days  2 hours 22 minutes 13.7 seconds.
 File lengths (MBytes):  RWF=    336 Int=      0 D2E=      0 Chk=      9 Scr=      1
 Normal termination of Gaussian 09 at Mon Jul 16 13:54:10 2018.
WARNING: pbs_rusage is deprecated and values produced may not be accurate


=============================================================================
                                     Resource usage:
                                       CPU time:              13:07:07
   JobId:    8440165.r-man2            Elapsed time:          03:18:21
   Project:             q95            Requested time:        32:00:00
   Service Units:     13.22 
                                       Max physical memory:      565MB
                                       Max virtual memory:      1180MB
                                       Requested memory:           0MB

                                       Number of cpus:               4

                                       Max jobfs disk use:       0.3GB
                                       Requested jobfs:         16.0GB
=============================================================================

