 Entering Gaussian System, Link 0=/apps/gaussian/g09e01/g09/g09
 AtFile(1): /home/507/hio507/Basis/6-31pGd.gbs
 Initial command:
 /apps/gaussian/g09e01/g09/l1.exe "/jobfs/local/5879267.r-man2/Gau-15185.inp" -scrdir="/jobfs/local/5879267.r-man2/"
 Entering Link 1 = /apps/gaussian/g09e01/g09/l1.exe PID=     15186.
  
 Copyright (c) 1988,1990,1992,1993,1995,1998,2003,2009,2015,
            Gaussian, Inc.  All Rights Reserved.
  
 This is part of the Gaussian(R) 09 program.  It is based on
 the Gaussian(R) 03 system (copyright 2003, Gaussian, Inc.),
 the Gaussian(R) 98 system (copyright 1998, Gaussian, Inc.),
 the Gaussian(R) 94 system (copyright 1995, Gaussian, Inc.),
 the Gaussian 92(TM) system (copyright 1992, Gaussian, Inc.),
 the Gaussian 90(TM) system (copyright 1990, Gaussian, Inc.),
 the Gaussian 88(TM) system (copyright 1988, Gaussian, Inc.),
 the Gaussian 86(TM) system (copyright 1986, Carnegie Mellon
 University), and the Gaussian 82(TM) system (copyright 1983,
 Carnegie Mellon University). Gaussian is a federally registered
 trademark of Gaussian, Inc.
  
 This software contains proprietary and confidential information,
 including trade secrets, belonging to Gaussian, Inc.
  
 This software is provided under written license and may be
 used, copied, transmitted, or stored only in accord with that
 written license.
  
 The following legend is applicable only to US Government
 contracts under FAR:
  
                    RESTRICTED RIGHTS LEGEND
  
 Use, reproduction and disclosure by the US Government is
 subject to restrictions as set forth in subparagraphs (a)
 and (c) of the Commercial Computer Software - Restricted
 Rights clause in FAR 52.227-19.
  
 Gaussian, Inc.
 340 Quinnipiac St., Bldg. 40, Wallingford CT 06492
  
  
 ---------------------------------------------------------------
 Warning -- This program may not be used in any manner that
 competes with the business of Gaussian, Inc. or will provide
 assistance to any competitor of Gaussian, Inc.  The licensee
 of this program is prohibited from giving any competitor of
 Gaussian, Inc. access to this program.  By using this program,
 the user acknowledges that Gaussian, Inc. is engaged in the
 business of creating and licensing software in the field of
 computational chemistry and represents and warrants to the
 licensee that it is not a competitor of Gaussian, Inc. and that
 it will not use this program in any manner prohibited above.
 ---------------------------------------------------------------
  

 Cite this work as:
 Gaussian 09, Revision E.01,
 M. J. Frisch, G. W. Trucks, H. B. Schlegel, G. E. Scuseria, 
 M. A. Robb, J. R. Cheeseman, G. Scalmani, V. Barone, B. Mennucci, 
 G. A. Petersson, H. Nakatsuji, M. Caricato, X. Li, H. P. Hratchian, 
 A. F. Izmaylov, J. Bloino, G. Zheng, J. L. Sonnenberg, M. Hada, 
 M. Ehara, K. Toyota, R. Fukuda, J. Hasegawa, M. Ishida, T. Nakajima, 
 Y. Honda, O. Kitao, H. Nakai, T. Vreven, J. A. Montgomery, Jr., 
 J. E. Peralta, F. Ogliaro, M. Bearpark, J. J. Heyd, E. Brothers, 
 K. N. Kudin, V. N. Staroverov, T. Keith, R. Kobayashi, J. Normand, 
 K. Raghavachari, A. Rendell, J. C. Burant, S. S. Iyengar, J. Tomasi, 
 M. Cossi, N. Rega, J. M. Millam, M. Klene, J. E. Knox, J. B. Cross, 
 V. Bakken, C. Adamo, J. Jaramillo, R. Gomperts, R. E. Stratmann, 
 O. Yazyev, A. J. Austin, R. Cammi, C. Pomelli, J. W. Ochterski, 
 R. L. Martin, K. Morokuma, V. G. Zakrzewski, G. A. Voth, 
 P. Salvador, J. J. Dannenberg, S. Dapprich, A. D. Daniels, 
 O. Farkas, J. B. Foresman, J. V. Ortiz, J. Cioslowski, 
 and D. J. Fox, Gaussian, Inc., Wallingford CT, 2013.
 
 ******************************************
 Gaussian 09:  ES64L-G09RevE.01 30-Nov-2015
                19-Feb-2019 
 ******************************************
 %chk=4Nitro_EtO.M062X_6-31pGd_opt_Pentadecane.chk
 %mem=196608000
 %nproc=8
 Will use up to    8 processors via shared memory.
 ----------------------------------------------------------------------
 # M062X/Gen 6D SCF=Tight INT(grid=ultrafine) OPT IOP(2/17=4) SCRF=(SMD
 ,Solvent=n-Pentadecane) maxdisk=2684354560
 ----------------------------------------------------------------------
 1/14=-1,18=20,19=15,26=4,38=1/1,3;
 2/9=110,12=2,17=4,18=5,40=1/2;
 3/5=7,8=2,11=2,16=1,25=1,30=1,70=32201,71=1,72=151,74=-55,75=-5/1,2,3;
 4//1;
 5/5=2,32=2,38=5,53=151/2;
 6/7=2,8=2,9=2,10=2,28=1/1;
 7//1,2,3,16;
 1/14=-1,18=20,19=15,26=4/3(2);
 2/9=110,17=4/2;
 99//99;
 2/9=110,17=4/2;
 3/5=7,6=1,8=2,11=2,16=1,25=1,30=1,70=32205,71=1,72=151,74=-55,75=-5,82=7/1,2,3;
 4/5=5,16=3,69=1/1;
 5/5=2,32=2,38=5,53=151/2;
 7//1,2,3,16;
 1/14=-1,18=20,19=15,26=4/3(-5);
 2/9=110,17=4/2;
 6/7=2,8=2,9=2,10=2,19=2,28=1/1;
 99/9=1/99;
 ----------------------------------------
 4Nitro_EtO.M062X_6-31pGd_opt_Pentadecane
 ----------------------------------------
 Symbolic Z-matrix:
 Charge = -1 Multiplicity = 1
 C                    -4.03212   4.26274  -1.46676 
 C                    -4.14437   2.89681  -1.16307 
 C                    -3.06841   2.19855  -0.61124 
 C                    -1.84007   2.83288  -0.34207 
 C                    -1.73336   4.21084  -0.65083 
 C                    -2.81282   4.90827  -1.20282 
 N                    -0.77989   2.0394    0.23123 
 C                     0.49623   2.44248   0.53239 
 N                     1.37595   1.5536    1.07896 
 O                     0.86594   3.58548   0.31717 
 C                     2.73884   1.93973   1.40708 
 C                     3.52111   0.76406   2.00206 
 C                     4.95186   1.17022   2.34367 
 H                    -3.20584   1.14802  -0.39602 
 H                    -0.84559   4.79081  -0.48239 
 H                    -1.03379   0.94685   0.45789 
 H                     1.03738   0.48178   1.28557 
 H                     2.71563   2.77275   2.14405 
 H                     3.25225   2.28755   0.48347 
 H                     3.54949  -0.0714    1.26899 
 H                     3.01658   0.4124    2.92823 
 H                     5.48606   1.50832   1.43016 
 H                     5.494     0.30053   2.771 
 H                     4.95195   1.99179   3.09144 
 H                    -5.06748   2.36341  -1.3517 
 H                    -2.69083   5.96145  -1.42331 
 N                    -5.1331    4.97963  -2.03036 
 O                    -5.03231   6.14213  -2.28546 
 O                    -6.16745   4.42507  -2.25198 
 O                    -1.64147  -0.93223   1.09627 
 C                    -0.77164  -1.75147   1.7236 
 O                     0.38146  -1.38439   1.91232 
 C                    -1.24479  -3.1051    2.18177 
 C                    -2.72564  -3.35342   1.89654 
 H                    -1.06994  -3.1916    3.27541 
 H                    -0.64569  -3.88399   1.66351 
 H                    -3.35184  -2.60169   2.4228 
 H                    -3.00839  -4.36537   2.25581 
 H                    -2.92274  -3.2968    0.80456 
 
 Add virtual bond connecting atoms O30        and H16        Dist= 3.92D+00.
 Add virtual bond connecting atoms O32        and H17        Dist= 3.92D+00.

 GradGradGradGradGradGradGradGradGradGradGradGradGradGradGradGradGradGrad
 Berny optimization.
 Initialization pass.
                           ----------------------------
                           !    Initial Parameters    !
                           ! (Angstroms and Degrees)  !
 --------------------------                            --------------------------
 ! Name  Definition              Value          Derivative Info.                !
 --------------------------------------------------------------------------------
 ! R1    R(1,2)                  1.4038         estimate D2E/DX2                !
 ! R2    R(1,6)                  1.4047         estimate D2E/DX2                !
 ! R3    R(1,27)                 1.4296         estimate D2E/DX2                !
 ! R4    R(2,3)                  1.3963         estimate D2E/DX2                !
 ! R5    R(2,25)                 1.0827         estimate D2E/DX2                !
 ! R6    R(3,4)                  1.4084         estimate D2E/DX2                !
 ! R7    R(3,14)                 1.0811         estimate D2E/DX2                !
 ! R8    R(4,5)                  1.4162         estimate D2E/DX2                !
 ! R9    R(4,7)                  1.443          estimate D2E/DX2                !
 ! R10   R(5,6)                  1.3987         estimate D2E/DX2                !
 ! R11   R(5,15)                 1.0737         estimate D2E/DX2                !
 ! R12   R(6,26)                 1.0829         estimate D2E/DX2                !
 ! R13   R(7,8)                  1.3717         estimate D2E/DX2                !
 ! R14   R(7,16)                 1.1443         estimate D2E/DX2                !
 ! R15   R(8,9)                  1.3648         estimate D2E/DX2                !
 ! R16   R(8,10)                 1.2204         estimate D2E/DX2                !
 ! R17   R(9,11)                 1.454          estimate D2E/DX2                !
 ! R18   R(9,17)                 1.1429         estimate D2E/DX2                !
 ! R19   R(11,12)                1.5324         estimate D2E/DX2                !
 ! R20   R(11,18)                1.1125         estimate D2E/DX2                !
 ! R21   R(11,19)                1.1125         estimate D2E/DX2                !
 ! R22   R(12,13)                1.526          estimate D2E/DX2                !
 ! R23   R(12,20)                1.1118         estimate D2E/DX2                !
 ! R24   R(12,21)                1.1118         estimate D2E/DX2                !
 ! R25   R(13,22)                1.1109         estimate D2E/DX2                !
 ! R26   R(13,23)                1.1104         estimate D2E/DX2                !
 ! R27   R(13,24)                1.1109         estimate D2E/DX2                !
 ! R28   R(16,30)                2.0755         estimate D2E/DX2                !
 ! R29   R(17,32)                2.075          estimate D2E/DX2                !
 ! R30   R(27,28)                1.1944         estimate D2E/DX2                !
 ! R31   R(27,29)                1.1944         estimate D2E/DX2                !
 ! R32   R(30,31)                1.3496         estimate D2E/DX2                !
 ! R33   R(31,32)                1.2247         estimate D2E/DX2                !
 ! R34   R(31,33)                1.5054         estimate D2E/DX2                !
 ! R35   R(33,34)                1.5284         estimate D2E/DX2                !
 ! R36   R(33,35)                1.1109         estimate D2E/DX2                !
 ! R37   R(33,36)                1.1109         estimate D2E/DX2                !
 ! R38   R(34,37)                1.1109         estimate D2E/DX2                !
 ! R39   R(34,38)                1.1104         estimate D2E/DX2                !
 ! R40   R(34,39)                1.1111         estimate D2E/DX2                !
 ! A1    A(2,1,6)              118.4201         estimate D2E/DX2                !
 ! A2    A(2,1,27)             120.7739         estimate D2E/DX2                !
 ! A3    A(6,1,27)             120.806          estimate D2E/DX2                !
 ! A4    A(1,2,3)              120.6945         estimate D2E/DX2                !
 ! A5    A(1,2,25)             120.6547         estimate D2E/DX2                !
 ! A6    A(3,2,25)             118.6508         estimate D2E/DX2                !
 ! A7    A(2,3,4)              121.4894         estimate D2E/DX2                !
 ! A8    A(2,3,14)             117.8161         estimate D2E/DX2                !
 ! A9    A(4,3,14)             120.6945         estimate D2E/DX2                !
 ! A10   A(3,4,5)              117.5347         estimate D2E/DX2                !
 ! A11   A(3,4,7)              117.9717         estimate D2E/DX2                !
 ! A12   A(5,4,7)              124.4933         estimate D2E/DX2                !
 ! A13   A(4,5,6)              120.8687         estimate D2E/DX2                !
 ! A14   A(4,5,15)             123.62           estimate D2E/DX2                !
 ! A15   A(6,5,15)             115.5109         estimate D2E/DX2                !
 ! A16   A(1,6,5)              120.9925         estimate D2E/DX2                !
 ! A17   A(1,6,26)             120.4293         estimate D2E/DX2                !
 ! A18   A(5,6,26)             118.5782         estimate D2E/DX2                !
 ! A19   A(4,7,8)              127.5271         estimate D2E/DX2                !
 ! A20   A(4,7,16)             116.147          estimate D2E/DX2                !
 ! A21   A(8,7,16)             116.3257         estimate D2E/DX2                !
 ! A22   A(7,8,9)              119.7478         estimate D2E/DX2                !
 ! A23   A(7,8,10)             121.2187         estimate D2E/DX2                !
 ! A24   A(9,8,10)             119.0332         estimate D2E/DX2                !
 ! A25   A(8,9,11)             121.4382         estimate D2E/DX2                !
 ! A26   A(8,9,17)             119.4881         estimate D2E/DX2                !
 ! A27   A(11,9,17)            119.0737         estimate D2E/DX2                !
 ! A28   A(9,11,12)            111.246          estimate D2E/DX2                !
 ! A29   A(9,11,18)            109.1951         estimate D2E/DX2                !
 ! A30   A(9,11,19)            109.1624         estimate D2E/DX2                !
 ! A31   A(12,11,18)           109.1434         estimate D2E/DX2                !
 ! A32   A(12,11,19)           109.0646         estimate D2E/DX2                !
 ! A33   A(18,11,19)           108.9962         estimate D2E/DX2                !
 ! A34   A(11,12,13)           111.1829         estimate D2E/DX2                !
 ! A35   A(11,12,20)           109.4836         estimate D2E/DX2                !
 ! A36   A(11,12,21)           109.5403         estimate D2E/DX2                !
 ! A37   A(13,12,20)           108.8845         estimate D2E/DX2                !
 ! A38   A(13,12,21)           108.8555         estimate D2E/DX2                !
 ! A39   A(20,12,21)           108.8547         estimate D2E/DX2                !
 ! A40   A(12,13,22)           110.3506         estimate D2E/DX2                !
 ! A41   A(12,13,23)           109.6007         estimate D2E/DX2                !
 ! A42   A(12,13,24)           110.3401         estimate D2E/DX2                !
 ! A43   A(22,13,23)           108.6664         estimate D2E/DX2                !
 ! A44   A(22,13,24)           109.1705         estimate D2E/DX2                !
 ! A45   A(23,13,24)           108.6724         estimate D2E/DX2                !
 ! A46   A(1,27,28)            120.4826         estimate D2E/DX2                !
 ! A47   A(1,27,29)            120.4821         estimate D2E/DX2                !
 ! A48   A(28,27,29)           119.0354         estimate D2E/DX2                !
 ! A49   A(16,30,31)           120.2555         estimate D2E/DX2                !
 ! A50   A(30,31,32)           119.7694         estimate D2E/DX2                !
 ! A51   A(30,31,33)           118.9964         estimate D2E/DX2                !
 ! A52   A(32,31,33)           121.234          estimate D2E/DX2                !
 ! A53   A(17,32,31)           121.3743         estimate D2E/DX2                !
 ! A54   A(31,33,34)           113.1932         estimate D2E/DX2                !
 ! A55   A(31,33,35)           108.6736         estimate D2E/DX2                !
 ! A56   A(31,33,36)           108.5999         estimate D2E/DX2                !
 ! A57   A(34,33,35)           108.8791         estimate D2E/DX2                !
 ! A58   A(34,33,36)           108.7556         estimate D2E/DX2                !
 ! A59   A(35,33,36)           108.6501         estimate D2E/DX2                !
 ! A60   A(33,34,37)           110.3526         estimate D2E/DX2                !
 ! A61   A(33,34,38)           109.5358         estimate D2E/DX2                !
 ! A62   A(33,34,39)           110.305          estimate D2E/DX2                !
 ! A63   A(37,34,38)           108.6545         estimate D2E/DX2                !
 ! A64   A(37,34,39)           109.3352         estimate D2E/DX2                !
 ! A65   A(38,34,39)           108.6176         estimate D2E/DX2                !
 ! A66   L(7,16,30,2,-1)       177.8718         estimate D2E/DX2                !
 ! A67   L(9,17,32,1,-1)       180.7848         estimate D2E/DX2                !
 ! A68   L(7,16,30,2,-2)       188.2482         estimate D2E/DX2                !
 ! A69   L(9,17,32,1,-2)       187.9194         estimate D2E/DX2                !
 ! D1    D(6,1,2,3)              0.0272         estimate D2E/DX2                !
 ! D2    D(6,1,2,25)          -179.9987         estimate D2E/DX2                !
 ! D3    D(27,1,2,3)          -179.9288         estimate D2E/DX2                !
 ! D4    D(27,1,2,25)            0.0453         estimate D2E/DX2                !
 ! D5    D(2,1,6,5)              0.0103         estimate D2E/DX2                !
 ! D6    D(2,1,6,26)          -179.9277         estimate D2E/DX2                !
 ! D7    D(27,1,6,5)           179.9662         estimate D2E/DX2                !
 ! D8    D(27,1,6,26)            0.0283         estimate D2E/DX2                !
 ! D9    D(2,1,27,28)          179.9218         estimate D2E/DX2                !
 ! D10   D(2,1,27,29)           -0.0172         estimate D2E/DX2                !
 ! D11   D(6,1,27,28)           -0.0331         estimate D2E/DX2                !
 ! D12   D(6,1,27,29)         -179.9721         estimate D2E/DX2                !
 ! D13   D(1,2,3,4)             -0.0606         estimate D2E/DX2                !
 ! D14   D(1,2,3,14)          -179.9744         estimate D2E/DX2                !
 ! D15   D(25,2,3,4)           179.9648         estimate D2E/DX2                !
 ! D16   D(25,2,3,14)            0.051          estimate D2E/DX2                !
 ! D17   D(2,3,4,5)              0.054          estimate D2E/DX2                !
 ! D18   D(2,3,4,7)            179.8769         estimate D2E/DX2                !
 ! D19   D(14,3,4,5)           179.9653         estimate D2E/DX2                !
 ! D20   D(14,3,4,7)            -0.2118         estimate D2E/DX2                !
 ! D21   D(3,4,5,6)             -0.0162         estimate D2E/DX2                !
 ! D22   D(3,4,5,15)           179.7404         estimate D2E/DX2                !
 ! D23   D(7,4,5,6)           -179.8264         estimate D2E/DX2                !
 ! D24   D(7,4,5,15)            -0.0699         estimate D2E/DX2                !
 ! D25   D(3,4,7,8)            177.8944         estimate D2E/DX2                !
 ! D26   D(3,4,7,16)            -1.9365         estimate D2E/DX2                !
 ! D27   D(5,4,7,8)             -2.2961         estimate D2E/DX2                !
 ! D28   D(5,4,7,16)           177.873          estimate D2E/DX2                !
 ! D29   D(4,5,6,1)             -0.0155         estimate D2E/DX2                !
 ! D30   D(4,5,6,26)           179.9236         estimate D2E/DX2                !
 ! D31   D(15,5,6,1)          -179.7909         estimate D2E/DX2                !
 ! D32   D(15,5,6,26)            0.1482         estimate D2E/DX2                !
 ! D33   D(4,7,8,9)            179.7843         estimate D2E/DX2                !
 ! D34   D(4,7,8,10)            -0.4338         estimate D2E/DX2                !
 ! D35   D(16,7,8,9)            -0.385          estimate D2E/DX2                !
 ! D36   D(16,7,8,10)          179.3969         estimate D2E/DX2                !
 ! D37   D(4,7,30,31)         -175.7124         estimate D2E/DX2                !
 ! D38   D(8,7,30,31)           -0.476          estimate D2E/DX2                !
 ! D39   D(7,8,9,11)           179.7291         estimate D2E/DX2                !
 ! D40   D(7,8,9,17)            -0.3271         estimate D2E/DX2                !
 ! D41   D(10,8,9,11)           -0.0576         estimate D2E/DX2                !
 ! D42   D(10,8,9,17)          179.8862         estimate D2E/DX2                !
 ! D43   D(8,9,11,12)         -179.8395         estimate D2E/DX2                !
 ! D44   D(8,9,11,18)           59.6353         estimate D2E/DX2                !
 ! D45   D(8,9,11,19)          -59.4339         estimate D2E/DX2                !
 ! D46   D(17,9,11,12)           0.2164         estimate D2E/DX2                !
 ! D47   D(17,9,11,18)        -120.3088         estimate D2E/DX2                !
 ! D48   D(17,9,11,19)         120.622          estimate D2E/DX2                !
 ! D49   D(8,9,32,31)            1.8219         estimate D2E/DX2                !
 ! D50   D(11,9,32,31)         176.4824         estimate D2E/DX2                !
 ! D51   D(9,11,12,13)         179.9035         estimate D2E/DX2                !
 ! D52   D(9,11,12,20)          59.5518         estimate D2E/DX2                !
 ! D53   D(9,11,12,21)         -59.7437         estimate D2E/DX2                !
 ! D54   D(18,11,12,13)        -59.5408         estimate D2E/DX2                !
 ! D55   D(18,11,12,20)       -179.8925         estimate D2E/DX2                !
 ! D56   D(18,11,12,21)         60.812          estimate D2E/DX2                !
 ! D57   D(19,11,12,13)         59.4402         estimate D2E/DX2                !
 ! D58   D(19,11,12,20)        -60.9115         estimate D2E/DX2                !
 ! D59   D(19,11,12,21)        179.793          estimate D2E/DX2                !
 ! D60   D(11,12,13,22)        -60.3142         estimate D2E/DX2                !
 ! D61   D(11,12,13,23)       -179.9474         estimate D2E/DX2                !
 ! D62   D(11,12,13,24)         60.4186         estimate D2E/DX2                !
 ! D63   D(20,12,13,22)         60.391          estimate D2E/DX2                !
 ! D64   D(20,12,13,23)        -59.2422         estimate D2E/DX2                !
 ! D65   D(20,12,13,24)       -178.8762         estimate D2E/DX2                !
 ! D66   D(21,12,13,22)        178.9291         estimate D2E/DX2                !
 ! D67   D(21,12,13,23)         59.2959         estimate D2E/DX2                !
 ! D68   D(21,12,13,24)        -60.3381         estimate D2E/DX2                !
 ! D69   D(16,30,31,32)         -0.2237         estimate D2E/DX2                !
 ! D70   D(16,30,31,33)        179.6476         estimate D2E/DX2                !
 ! D71   D(30,31,32,17)         -0.0235         estimate D2E/DX2                !
 ! D72   D(33,31,32,17)       -179.8919         estimate D2E/DX2                !
 ! D73   D(30,31,33,34)         -1.896          estimate D2E/DX2                !
 ! D74   D(30,31,33,35)       -122.9863         estimate D2E/DX2                !
 ! D75   D(30,31,33,36)        118.9861         estimate D2E/DX2                !
 ! D76   D(32,31,33,34)        177.9734         estimate D2E/DX2                !
 ! D77   D(32,31,33,35)         56.8831         estimate D2E/DX2                !
 ! D78   D(32,31,33,36)        -61.1445         estimate D2E/DX2                !
 ! D79   D(31,33,34,37)        -60.5213         estimate D2E/DX2                !
 ! D80   D(31,33,34,38)        179.8999         estimate D2E/DX2                !
 ! D81   D(31,33,34,39)         60.3959         estimate D2E/DX2                !
 ! D82   D(35,33,34,37)         60.4529         estimate D2E/DX2                !
 ! D83   D(35,33,34,38)        -59.126          estimate D2E/DX2                !
 ! D84   D(35,33,34,39)       -178.63           estimate D2E/DX2                !
 ! D85   D(36,33,34,37)        178.6848         estimate D2E/DX2                !
 ! D86   D(36,33,34,38)         59.106          estimate D2E/DX2                !
 ! D87   D(36,33,34,39)        -60.3981         estimate D2E/DX2                !
 --------------------------------------------------------------------------------
 Trust Radius=3.00D-01 FncErr=1.00D-07 GrdErr=1.00D-06
 Number of steps in this run=    206 maximum allowed number of steps=    234.
 GradGradGradGradGradGradGradGradGradGradGradGradGradGradGradGradGradGrad

                          Input orientation:                          
 ---------------------------------------------------------------------
 Center     Atomic      Atomic             Coordinates (Angstroms)
 Number     Number       Type             X           Y           Z
 ---------------------------------------------------------------------
      1          6           0       -4.032120    4.262740   -1.466760
      2          6           0       -4.144370    2.896810   -1.163070
      3          6           0       -3.068410    2.198550   -0.611240
      4          6           0       -1.840070    2.832880   -0.342070
      5          6           0       -1.733360    4.210840   -0.650830
      6          6           0       -2.812820    4.908270   -1.202820
      7          7           0       -0.779890    2.039400    0.231230
      8          6           0        0.496230    2.442480    0.532390
      9          7           0        1.375950    1.553600    1.078960
     10          8           0        0.865940    3.585480    0.317170
     11          6           0        2.738840    1.939730    1.407080
     12          6           0        3.521110    0.764060    2.002060
     13          6           0        4.951860    1.170220    2.343670
     14          1           0       -3.205840    1.148020   -0.396020
     15          1           0       -0.845590    4.790810   -0.482390
     16          1           0       -1.033790    0.946850    0.457890
     17          1           0        1.037380    0.481780    1.285570
     18          1           0        2.715630    2.772750    2.144050
     19          1           0        3.252250    2.287550    0.483470
     20          1           0        3.549490   -0.071400    1.268990
     21          1           0        3.016580    0.412400    2.928230
     22          1           0        5.486060    1.508320    1.430160
     23          1           0        5.494000    0.300530    2.771000
     24          1           0        4.951950    1.991790    3.091440
     25          1           0       -5.067480    2.363410   -1.351700
     26          1           0       -2.690830    5.961450   -1.423310
     27          7           0       -5.133100    4.979630   -2.030360
     28          8           0       -5.032310    6.142130   -2.285460
     29          8           0       -6.167450    4.425070   -2.251980
     30          8           0       -1.641470   -0.932230    1.096270
     31          6           0       -0.771640   -1.751470    1.723600
     32          8           0        0.381460   -1.384390    1.912320
     33          6           0       -1.244790   -3.105100    2.181770
     34          6           0       -2.725640   -3.353420    1.896540
     35          1           0       -1.069940   -3.191600    3.275410
     36          1           0       -0.645690   -3.883990    1.663510
     37          1           0       -3.351840   -2.601690    2.422800
     38          1           0       -3.008390   -4.365370    2.255810
     39          1           0       -2.922740   -3.296800    0.804560
 ---------------------------------------------------------------------
                    Distance matrix (angstroms):
                    1          2          3          4          5
     1  C    0.000000
     2  C    1.403778   0.000000
     3  C    2.433420   1.396343   0.000000
     4  C    2.848598   2.447024   1.408420   0.000000
     5  C    2.439822   2.793212   2.415209   1.416154   0.000000
     6  C    1.404659   2.412587   2.785296   2.448342   1.398691
     7  N    4.289920   3.741517   2.443851   1.443006   2.530274
     8  C    5.274078   4.961468   3.751540   2.524953   3.081911
     9  N    6.562572   6.107769   4.798445   3.741479   4.440823
    10  O    5.256622   5.269590   4.273714   2.885047   2.843318
    11  C    7.713704   7.409470   6.153434   4.982335   5.421578
    12  C    9.018024   8.563075   7.232487   6.206224   6.821112
    13  C   10.236941   9.900492   8.608931   7.490524   7.931240
    14  H    3.395689   2.127785   1.081120   2.169560   3.407931
    15  H    3.376657   3.864261   3.417213   2.200493   1.073719
    16  H    4.867174   4.013174   2.617149   2.201620   3.517426
    17  H    6.897160   6.219223   4.837634   4.056674   5.033144
    18  H    7.796804   7.616563   6.432453   5.190261   5.447290
    19  H    7.795307   7.602123   6.415376   5.187545   5.462782
    20  H    9.151498   8.597713   7.244621   6.330696   7.066243
    21  H    9.155612   8.613375   7.262595   6.335664   7.056894
    22  H   10.323504  10.069654   8.821717   7.652937   7.984620
    23  H   11.153685  10.729201   9.399835   8.360178   8.901358
    24  H   10.327048  10.082805   8.836219   7.656890   7.976349
    25  H    2.166256   1.082695   2.138163   3.414078   3.875638
    26  H    2.164847   3.401841   3.868002   3.417722   2.139652
    27  N    1.429592   2.463314   3.743161   4.278189   3.748650
    28  O    2.280955   3.546872   4.712933   4.991823   4.157519
    29  O    2.280911   2.759376   4.153729   4.990896   4.719187
    30  O    6.266741   5.102026   3.841033   4.035383   5.432492
    31  C    7.548500   6.427650   5.131207   5.140506   6.489373
    32  O    7.923885   6.947650   5.577402   5.272839   6.507596
    33  C    8.681362   7.457777   6.265397   6.479486   7.860363
    34  C    8.427608   7.102069   6.101707   6.638216   8.043118
    35  H    9.318255   8.137626   6.939283   7.069202   8.405451
    36  H    9.361395   8.136926   6.931187   7.110924   8.489138
    37  H    7.919082   6.612115   5.685775   6.282078   7.647042
    38  H    9.452504   8.106692   7.163004   7.741366   9.144705
    39  H    7.970964   6.612469   5.676670   6.329290   7.739344
                    6          7          8          9         10
     6  C    0.000000
     7  N    3.797330   0.000000
     8  C    4.476705   1.371734   0.000000
     9  N    5.831477   2.366917   1.364827   0.000000
    10  O    4.194451   2.259758   1.220432   2.229119   0.000000
    11  C    6.815038   3.711336   2.459093   1.454039   2.721057
    12  C    8.219757   4.822959   3.758580   2.465197   4.224831
    13  C    9.318845   6.170157   4.975140   3.812296   5.160904
    14  H    3.865860   2.659555   4.030247   4.830410   4.798879
    15  H    2.098287   2.843207   2.888756   4.225232   2.240860
    16  H    4.649275   1.144336   2.140892   2.561390   3.254404
    17  H    6.372593   2.615393   2.168979   1.142854   3.255786
    18  H    6.806302   4.051585   2.762655   2.101306   2.723853
    19  H    6.818858   4.047636   2.760805   2.100903   2.721535
    20  H    8.449020   4.927063   4.023005   2.720480   4.634671
    21  H    8.441583   4.932963   4.026591   2.722830   4.638030
    22  H    9.346853   6.401688   5.155293   4.125336   5.186410
    23  H   10.296882   6.988261   5.880224   4.625097   6.183132
    24  H    9.340138   6.406017   5.158032   4.126725   5.189595
    25  H    3.403229   4.581929   5.874599   6.934096   6.283634
    26  H    1.082906   4.666012   5.134712   6.498400   4.617913
    27  N    2.464470   5.719281   6.685370   7.985818   6.591133
    28  O    2.760554   6.422554   7.224434   8.569698   6.935380
    29  O    3.547924   6.394025   7.489193   8.731746   7.534854
    30  O    6.385085   3.212662   4.034401   3.909536   5.225304
    31  C    7.555295   4.074056   4.540451   3.993894   5.756974
    32  O    7.713954   3.987121   4.069682   3.211742   5.242026
    33  C    8.839020   5.521469   6.043778   5.457834   7.259186
    34  C    8.824350   5.970068   6.770067   6.447505   7.971336
    35  H    9.418071   6.059251   6.459095   5.772668   7.643797
    36  H    9.498218   6.095571   6.527453   5.830618   7.738904
    37  H    8.356744   5.740873   6.620041   6.436174   7.778459
    38  H    9.899534   7.077162   7.848526   7.459331   9.054544
    39  H    8.447771   5.778888   6.686013   6.486942   7.871304
                   11         12         13         14         15
    11  C    0.000000
    12  C    1.532367   0.000000
    13  C    2.523253   1.526011   0.000000
    14  H    6.262363   7.151928   8.605490   0.000000
    15  H    4.954482   6.438577   7.396331   4.341447   0.000000
    16  H    4.014911   4.813002   6.279655   2.342527   3.961764
    17  H    2.243958   2.600376   4.112989   4.612650   5.023843
    18  H    1.112468   2.168823   2.758383   6.644961   4.863439
    19  H    1.112486   2.167815   2.756346   6.616567   4.898111
    20  H    2.172755   1.111841   2.159444   7.063549   6.784184
    21  H    2.173424   1.111758   2.159007   7.092974   6.761594
    22  H    2.780983   2.177618   1.110937   8.888975   7.383927
    23  H    3.483986   2.167585   1.110355   9.297068   8.422444
    24  H    2.781660   2.177469   1.110917   8.912007   7.363304
    25  H    8.290296   9.357858  10.745540   2.419959   4.946951
    26  H    7.325753   8.793988   9.775312   4.948704   2.379210
    27  N    9.111774  10.436800  11.634009   4.589840   4.562303
    28  O    9.575270  10.975767  12.076108   5.643324   4.754551
    29  O    9.944226  11.196787  12.464072   4.791114   5.620268
    30  O    5.247082   5.509091   7.031949   3.000270   5.989890
    31  C    5.103784   4.983285   6.455944   4.338797   6.904585
    32  O    4.106371   3.805429   5.253632   4.960872   6.735977
    33  C    6.474547   6.141376   7.530142   5.346003   8.342812
    34  C    7.623487   7.482424   8.922290   5.074385   8.690361
    35  H    6.657928   6.192448   7.493710   6.072378   8.825546
    36  H    6.740661   6.251496   7.572333   6.009755   8.938512
    37  H    7.665022   7.664381   9.120581   4.693334   8.328894
    38  H    8.573522   8.307214   9.696188   6.121165   9.798524
    39  H    7.735487   7.710239   9.183270   4.612804   8.448682
                   16         17         18         19         20
    16  H    0.000000
    17  H    2.278396   0.000000
    18  H    4.498355   2.966826   0.000000
    19  H    4.490910   2.968134   1.811327   0.000000
    20  H    4.764575   2.572349   3.090347   2.504004   0.000000
    21  H    4.774276   2.573010   2.505347   3.090078   1.808627
    22  H    6.615815   4.567871   3.127891   2.548201   2.504355
    23  H    6.955591   4.701150   3.771509   3.769149   2.485052
    24  H    6.622429   4.567839   2.551191   3.126973   3.089494
    25  H    4.642404   6.911226   8.541934   8.520065   9.329978
    26  H    5.606328   7.159914   7.219673   7.242482   9.087648
    27  N    6.265704   8.324714   9.159617   9.158642  10.572889
    28  O    7.106692   9.035096   9.539594   9.547706  11.175391
    29  O    6.767265   8.942783  10.048102  10.039045  11.270954
    30  O    2.075511   3.035045   5.814554   5.889907   5.264687
    31  C    2.991935   2.907203   5.727687   5.834663   4.658484
    32  O    3.090789   2.075003   4.773244   4.875058   3.489159
    33  C    4.408467   4.344788   7.087698   7.224145   5.746444
    34  C    4.839875   5.407621   8.197478   8.339813   7.109341
    35  H    5.006645   4.679100   7.154298   7.516471   5.924568
    36  H    4.994112   4.694200   7.472722   7.394210   5.682519
    37  H    4.671869   5.483277   8.110271   8.442729   7.440565
    38  H    5.945691   6.387839   9.150391   9.305813   7.900493
    39  H    4.657991   5.494687   8.391954   8.331780   7.246286
                   21         22         23         24         25
    21  H    0.000000
    22  H    3.089269   0.000000
    23  H    2.484924   1.804625   0.000000
    24  H    2.503351   1.810764   1.804677   0.000000
    25  H    9.352875  10.947471  11.523758  10.966703   0.000000
    26  H    9.072066   9.738285  10.799523   9.723850   4.312712
    27  N   10.576601  11.695801  12.565122  11.699071   2.703607
    28  O   11.171258  12.079492  13.057384  12.075671   3.892540
    29  O   11.281955  12.564628  13.350340  12.574341   2.504173
    30  O    5.182812   7.541184   7.432318   7.483568   5.347087
    31  C    4.525934   7.061951   6.675777   6.974415   6.696562
    32  O    3.347295   5.887036   5.451087   5.803300   7.375010
    33  C    5.575776   8.194688   7.573427   8.074984   7.550031
    34  C    6.943981   9.554373   9.037617   9.431036   6.979787
    35  H    5.459762   8.274982   7.452161   7.947612   8.261272
    36  H    5.785387   8.168832   7.512159   8.239985   8.226404
    37  H    7.063779   9.797244   9.316277   9.513152   6.468577
    38  H    7.718776  10.360387   9.712192  10.221486   7.907620
    39  H    7.317353   9.705074   9.362114   9.757548   6.425523
                   26         27         28         29         30
    26  H    0.000000
    27  N    2.701326   0.000000
    28  O    2.501695   1.194421   0.000000
    29  O    3.890250   1.194375   2.058630   0.000000
    30  O    7.414328   7.544361   8.542860   7.771482   0.000000
    31  C    8.548419   8.855634   9.825212   9.114255   1.349556
    32  O    8.632888   9.298164  10.177365   9.694299   2.227697
    33  C    9.863567   9.910795  10.945899  10.029665   2.461103
    34  C    9.888853   9.521351  10.628985   9.463677   2.770924
    35  H   10.415545  10.556016  11.564695  10.702818   3.190619
    36  H   10.518733  10.599306  11.634427  10.717340   3.166422
    37  H    9.410466   8.971061  10.072044   8.896999   2.733522
    38  H   10.967223  10.498318  11.624411  10.371676   3.872913
    39  H    9.525355   9.023400  10.153419   8.916157   2.705169
                   31         32         33         34         35
    31  C    0.000000
    32  O    1.224746   0.000000
    33  C    1.505359   2.382884   0.000000
    34  C    2.532641   3.678505   1.528377   0.000000
    35  H    2.138006   2.688975   1.110902   2.160743   0.000000
    36  H    2.137081   2.713843   1.110938   2.159166   1.804886
    37  H    2.805207   3.959790   2.179719   1.110934   2.506393
    38  H    3.481203   4.527175   2.168882   1.110435   2.484936
    39  H    2.803553   3.975196   2.179214   1.111069   3.090151
                   36         37         38         39
    36  H    0.000000
    37  H    3.089347   0.000000
    38  H    2.482921   1.804553   0.000000
    39  H    2.503506   1.812734   1.804246   0.000000
 Stoichiometry    C13H18N3O5(1-)
 Framework group  C1[X(C13H18N3O5)]
 Deg. of freedom   111
 Full point group                 C1      NOp   1
 Largest Abelian subgroup         C1      NOp   1
 Largest concise Abelian subgroup C1      NOp   1
                         Standard orientation:                         
 ---------------------------------------------------------------------
 Center     Atomic      Atomic             Coordinates (Angstroms)
 Number     Number       Type             X           Y           Z
 ---------------------------------------------------------------------
      1          6           0        4.187610   -0.101169   -0.004403
      2          6           0        3.351560    1.016218   -0.156256
      3          6           0        1.963081    0.869841   -0.178018
      4          6           0        1.354473   -0.393904   -0.050771
      5          6           0        2.203470   -1.517007    0.101997
      6          6           0        3.593991   -1.367709    0.124272
      7          7           0       -0.086837   -0.457103   -0.080724
      8          6           0       -0.875644   -1.577398   -0.014576
      9          7           0       -2.234196   -1.452259   -0.052377
     10          8           0       -0.385714   -2.691657    0.074024
     11          6           0       -3.104925   -2.615124    0.009310
     12          6           0       -4.580772   -2.207757   -0.054524
     13          6           0       -5.493195   -3.429351    0.007928
     14          1           0        1.363607    1.761533   -0.297747
     15          1           0        1.844596   -2.523092    0.210968
     16          1           0       -0.633683    0.543866   -0.173051
     17          1           0       -2.701319   -0.412372   -0.133294
     18          1           0       -2.918174   -3.161879    0.959977
     19          1           0       -2.876411   -3.288231   -0.846455
     20          1           0       -4.774192   -1.662288   -1.003862
     21          1           0       -4.818799   -1.537453    0.799900
     22          1           0       -5.289100   -4.108145   -0.847505
     23          1           0       -6.553949   -3.104874   -0.041107
     24          1           0       -5.333914   -3.982106    0.958312
     25          1           0        3.770527    2.009317   -0.258482
     26          1           0        4.208030   -2.251592    0.244245
     27          7           0        5.609309    0.046913    0.019624
     28          8           0        6.315748   -0.907266    0.150495
     29          8           0        6.107922    1.126703   -0.089789
     30          8           0       -1.558742    2.398475   -0.061517
     31          6           0       -2.904153    2.484700   -0.000410
     32          8           0       -3.580235    1.463573   -0.015079
     33          6           0       -3.545009    3.843972    0.087851
     34          6           0       -2.530187    4.985500    0.142472
     35          1           0       -4.176837    3.880712    1.000838
     36          1           0       -4.196151    3.987107   -0.800806
     37          1           0       -1.879059    4.881185    1.036522
     38          1           0       -3.066066    5.956084    0.204645
     39          1           0       -1.900677    4.985892   -0.773057
 ---------------------------------------------------------------------
 Rotational constants (GHZ):      0.3467480      0.1278656      0.0937926
 General basis read from cards:  (6D, 7F)
 There are   435 symmetry adapted cartesian basis functions of A   symmetry.
 There are   435 symmetry adapted basis functions of A   symmetry.
   435 basis functions,   744 primitive gaussians,   435 cartesian basis functions
    79 alpha electrons       79 beta electrons
       nuclear repulsion energy      1582.9849105449 Hartrees.
 NAtoms=   39 NActive=   39 NUniq=   39 SFac= 1.00D+00 NAtFMM=   60 NAOKFM=F Big=F
 Integral buffers will be    131072 words long.
 Raffenetti 2 integral format.
 Two-electron integral symmetry is turned on.
 ------------------------------------------------------------------------------
 Polarizable Continuum Model (PCM)
 =================================
 Model                : PCM (using non-symmetric T matrix).
 Atomic radii         : SMD-Coulomb.
 Polarization charges : Total charges.
 Charge compensation  : None.
 Solution method      : On-the-fly selection.
 Cavity type          : VdW (van der Waals Surface) (Alpha=1.000).
 Cavity algorithm     : GePol (No added spheres)
                        Default sphere list used, NSphG=   39.
                        Lebedev-Laikov grids with approx.  5.0 points / Ang**2.
                        Smoothing algorithm: York/Karplus (Gamma=1.0000).
                        Polarization charges: spherical gaussians, with
                                              point-specific exponents (IZeta= 3).
                        Self-potential: point-specific (ISelfS= 7).
                        Self-field    : sphere-specific E.n sum rule (ISelfD= 2).
 1st derivatives      : Analytical E(r).r(x)/FMM algorithm (CHGder, D1EAlg=3).
                        Cavity 1st derivative terms included.
 Solvent              : n-Pentadecane, Eps=   2.033300 Eps(inf)=   2.049192
 ------------------------------------------------------------------------------
 ------------------------------------------------------------------------------
 Atomic radii for non-electrostatic terms: SMD-CDS.
 ------------------------------------------------------------------------------
 Nuclear repulsion after PCM non-electrostatic terms =     1582.9735636515 Hartrees.
 One-electron integrals computed using PRISM.
 NBasis=   435 RedAO= T EigKep=  1.02D-06  NBF=   435
 NBsUse=   435 1.00D-06 EigRej= -1.00D+00 NBFU=   435
 ExpMin= 4.38D-02 ExpMax= 5.48D+03 ExpMxC= 8.25D+02 IAcc=3 IRadAn=         5 AccDes= 0.00D+00
 Harris functional with IExCor= 1009 and IRadAn=       5 diagonalized for initial guess.
 HarFok:  IExCor= 1009 AccDes= 0.00D+00 IRadAn=         5 IDoV= 1 UseB2=F ITyADJ=14
 ICtDFT=  3500011 ScaDFX=  1.000000  1.000000  1.000000  1.000000
 FoFCou: FMM=F IPFlag=           0 FMFlag=      100000 FMFlg1=           0
         NFxFlg=           0 DoJE=T BraDBF=F KetDBF=T FulRan=T
         wScrn=  0.000000 ICntrl=     500 IOpCl=  0 I1Cent=   200000004 NGrid=           0
         NMat0=    1 NMatS0=      1 NMatT0=    0 NMatD0=    1 NMtDS0=    0 NMtDT0=    0
 Petite list used in FoFCou.
 Requested convergence on RMS density matrix=1.00D-08 within 128 cycles.
 Requested convergence on MAX density matrix=1.00D-06.
 Requested convergence on             energy=1.00D-06.
 No special actions if energy rises.
 Inv3:  Mode=1 IEnd=    32551308.
 Iteration    1 A*A^-1 deviation from unit magnitude is 4.22D-15 for   3265.
 Iteration    1 A*A^-1 deviation from orthogonality  is 3.86D-15 for   1223    704.
 Iteration    1 A^-1*A deviation from unit magnitude is 4.33D-15 for   3265.
 Iteration    1 A^-1*A deviation from orthogonality  is 2.35D-15 for    934    904.
 Error on total polarization charges =  0.02504
 SCF Done:  E(RM062X) =  -1046.24827905     A.U. after   16 cycles
            NFock= 16  Conv=0.39D-08     -V/T= 2.0091
 SMD-CDS (non-electrostatic) energy       (kcal/mol) =      -7.12
 (included in total energy above)

 **********************************************************************

            Population analysis using the SCF density.

 **********************************************************************

 Orbital symmetries:
       Occupied  (A) (A) (A) (A) (A) (A) (A) (A) (A) (A) (A) (A)
                 (A) (A) (A) (A) (A) (A) (A) (A) (A) (A) (A) (A)
                 (A) (A) (A) (A) (A) (A) (A) (A) (A) (A) (A) (A)
                 (A) (A) (A) (A) (A) (A) (A) (A) (A) (A) (A) (A)
                 (A) (A) (A) (A) (A) (A) (A) (A) (A) (A) (A) (A)
                 (A) (A) (A) (A) (A) (A) (A) (A) (A) (A) (A) (A)
                 (A) (A) (A) (A) (A) (A) (A)
       Virtual   (A) (A) (A) (A) (A) (A) (A) (A) (A) (A) (A) (A)
                 (A) (A) (A) (A) (A) (A) (A) (A) (A) (A) (A) (A)
                 (A) (A) (A) (A) (A) (A) (A) (A) (A) (A) (A) (A)
                 (A) (A) (A) (A) (A) (A) (A) (A) (A) (A) (A) (A)
                 (A) (A) (A) (A) (A) (A) (A) (A) (A) (A) (A) (A)
                 (A) (A) (A) (A) (A) (A) (A) (A) (A) (A) (A) (A)
                 (A) (A) (A) (A) (A) (A) (A) (A) (A) (A) (A) (A)
                 (A) (A) (A) (A) (A) (A) (A) (A) (A) (A) (A) (A)
                 (A) (A) (A) (A) (A) (A) (A) (A) (A) (A) (A) (A)
                 (A) (A) (A) (A) (A) (A) (A) (A) (A) (A) (A) (A)
                 (A) (A) (A) (A) (A) (A) (A) (A) (A) (A) (A) (A)
                 (A) (A) (A) (A) (A) (A) (A) (A) (A) (A) (A) (A)
                 (A) (A) (A) (A) (A) (A) (A) (A) (A) (A) (A) (A)
                 (A) (A) (A) (A) (A) (A) (A) (A) (A) (A) (A) (A)
                 (A) (A) (A) (A) (A) (A) (A) (A) (A) (A) (A) (A)
                 (A) (A) (A) (A) (A) (A) (A) (A) (A) (A) (A) (A)
                 (A) (A) (A) (A) (A) (A) (A) (A) (A) (A) (A) (A)
                 (A) (A) (A) (A) (A) (A) (A) (A) (A) (A) (A) (A)
                 (A) (A) (A) (A) (A) (A) (A) (A) (A) (A) (A) (A)
                 (A) (A) (A) (A) (A) (A) (A) (A) (A) (A) (A) (A)
                 (A) (A) (A) (A) (A) (A) (A) (A) (A) (A) (A) (A)
                 (A) (A) (A) (A) (A) (A) (A) (A) (A) (A) (A) (A)
                 (A) (A) (A) (A) (A) (A) (A) (A) (A) (A) (A) (A)
                 (A) (A) (A) (A) (A) (A) (A) (A) (A) (A) (A) (A)
                 (A) (A) (A) (A) (A) (A) (A) (A) (A) (A) (A) (A)
                 (A) (A) (A) (A) (A) (A) (A) (A) (A) (A) (A) (A)
                 (A) (A) (A) (A) (A) (A) (A) (A) (A) (A) (A) (A)
                 (A) (A) (A) (A) (A) (A) (A) (A) (A) (A) (A) (A)
                 (A) (A) (A) (A) (A) (A) (A) (A) (A) (A) (A) (A)
                 (A) (A) (A) (A) (A) (A) (A) (A)
 The electronic state is 1-A.
 Alpha  occ. eigenvalues --  -19.63131 -19.63127 -19.54467 -19.52216 -19.50315
 Alpha  occ. eigenvalues --  -14.97141 -14.74810 -14.72158 -10.62011 -10.58235
 Alpha  occ. eigenvalues --  -10.56540 -10.56467 -10.53728 -10.53622 -10.53070
 Alpha  occ. eigenvalues --  -10.52255 -10.51857 -10.50185 -10.50136 -10.48625
 Alpha  occ. eigenvalues --  -10.48023  -1.35423  -1.14597  -1.11763  -1.07521
 Alpha  occ. eigenvalues --   -0.98190  -0.95498  -0.94722  -0.93662  -0.86078
 Alpha  occ. eigenvalues --   -0.82866  -0.81651  -0.80063  -0.75631  -0.71533
 Alpha  occ. eigenvalues --   -0.66988  -0.65949  -0.64365  -0.62309  -0.60743
 Alpha  occ. eigenvalues --   -0.59844  -0.59796  -0.56647  -0.55163  -0.54085
 Alpha  occ. eigenvalues --   -0.51263  -0.50392  -0.48450  -0.48197  -0.47661
 Alpha  occ. eigenvalues --   -0.46650  -0.46440  -0.45795  -0.44895  -0.44060
 Alpha  occ. eigenvalues --   -0.42604  -0.42297  -0.41505  -0.40549  -0.40081
 Alpha  occ. eigenvalues --   -0.38324  -0.37820  -0.37629  -0.37279  -0.35721
 Alpha  occ. eigenvalues --   -0.35198  -0.35156  -0.34712  -0.33748  -0.33526
 Alpha  occ. eigenvalues --   -0.32791  -0.32776  -0.28178  -0.27866  -0.25588
 Alpha  occ. eigenvalues --   -0.24544  -0.23228  -0.22773  -0.22185
 Alpha virt. eigenvalues --   -0.00633   0.05276   0.06147   0.06739   0.07304
 Alpha virt. eigenvalues --    0.07815   0.08102   0.08291   0.08547   0.08999
 Alpha virt. eigenvalues --    0.09186   0.09789   0.10247   0.10565   0.10979
 Alpha virt. eigenvalues --    0.11242   0.11712   0.12378   0.12540   0.13167
 Alpha virt. eigenvalues --    0.13278   0.13797   0.13854   0.13931   0.14913
 Alpha virt. eigenvalues --    0.15184   0.15322   0.15706   0.16264   0.16539
 Alpha virt. eigenvalues --    0.16706   0.17372   0.17476   0.18149   0.18710
 Alpha virt. eigenvalues --    0.19045   0.19102   0.19563   0.20125   0.20677
 Alpha virt. eigenvalues --    0.21006   0.21505   0.21637   0.21902   0.22124
 Alpha virt. eigenvalues --    0.22603   0.23468   0.24078   0.24774   0.25091
 Alpha virt. eigenvalues --    0.25328   0.25727   0.25986   0.26735   0.26929
 Alpha virt. eigenvalues --    0.27349   0.27470   0.27779   0.28150   0.29057
 Alpha virt. eigenvalues --    0.29244   0.29310   0.29583   0.29716   0.29906
 Alpha virt. eigenvalues --    0.30213   0.30590   0.31012   0.31672   0.31897
 Alpha virt. eigenvalues --    0.32108   0.32436   0.32975   0.33124   0.33396
 Alpha virt. eigenvalues --    0.33940   0.34287   0.34683   0.34858   0.35432
 Alpha virt. eigenvalues --    0.35663   0.36327   0.36585   0.36801   0.37194
 Alpha virt. eigenvalues --    0.37392   0.37678   0.38253   0.38397   0.38448
 Alpha virt. eigenvalues --    0.39108   0.39652   0.39863   0.40031   0.40690
 Alpha virt. eigenvalues --    0.41202   0.41526   0.42002   0.42256   0.42593
 Alpha virt. eigenvalues --    0.42932   0.44119   0.44899   0.45266   0.45855
 Alpha virt. eigenvalues --    0.45976   0.46549   0.47953   0.48160   0.49930
 Alpha virt. eigenvalues --    0.50246   0.51926   0.53056   0.53304   0.53599
 Alpha virt. eigenvalues --    0.55618   0.56381   0.56766   0.57616   0.57791
 Alpha virt. eigenvalues --    0.59570   0.60665   0.61408   0.63174   0.64652
 Alpha virt. eigenvalues --    0.66701   0.69466   0.72590   0.73931   0.74582
 Alpha virt. eigenvalues --    0.75641   0.76304   0.77412   0.78309   0.79568
 Alpha virt. eigenvalues --    0.80108   0.80720   0.81505   0.81737   0.81987
 Alpha virt. eigenvalues --    0.82420   0.82706   0.83860   0.85318   0.85807
 Alpha virt. eigenvalues --    0.85915   0.86688   0.88294   0.88740   0.90464
 Alpha virt. eigenvalues --    0.90971   0.93026   0.93222   0.93459   0.94632
 Alpha virt. eigenvalues --    0.95265   0.97771   0.98390   0.99883   1.00236
 Alpha virt. eigenvalues --    1.01280   1.03218   1.03944   1.04955   1.05315
 Alpha virt. eigenvalues --    1.06306   1.06837   1.07937   1.09170   1.10213
 Alpha virt. eigenvalues --    1.11115   1.11298   1.11821   1.13491   1.14179
 Alpha virt. eigenvalues --    1.16130   1.16422   1.17853   1.18820   1.19345
 Alpha virt. eigenvalues --    1.19835   1.20794   1.21024   1.21673   1.22437
 Alpha virt. eigenvalues --    1.23818   1.24516   1.25186   1.26019   1.27270
 Alpha virt. eigenvalues --    1.29395   1.30499   1.30618   1.30817   1.31850
 Alpha virt. eigenvalues --    1.32812   1.33810   1.34581   1.37273   1.37443
 Alpha virt. eigenvalues --    1.39053   1.39686   1.41015   1.41204   1.41730
 Alpha virt. eigenvalues --    1.41989   1.43786   1.45646   1.45709   1.45950
 Alpha virt. eigenvalues --    1.46292   1.47008   1.49854   1.50054   1.50727
 Alpha virt. eigenvalues --    1.51562   1.52027   1.52502   1.52566   1.53711
 Alpha virt. eigenvalues --    1.54098   1.54812   1.56142   1.57017   1.57892
 Alpha virt. eigenvalues --    1.59194   1.61642   1.62049   1.63193   1.64458
 Alpha virt. eigenvalues --    1.64899   1.66288   1.69295   1.72186   1.74473
 Alpha virt. eigenvalues --    1.77670   1.79041   1.79251   1.80786   1.84176
 Alpha virt. eigenvalues --    1.85975   1.89520   1.91075   1.91184   1.92267
 Alpha virt. eigenvalues --    1.92476   1.93000   1.93922   1.94159   1.94704
 Alpha virt. eigenvalues --    1.94807   1.96308   1.97067   1.97646   1.99292
 Alpha virt. eigenvalues --    2.00817   2.02521   2.03550   2.03924   2.04185
 Alpha virt. eigenvalues --    2.04390   2.04896   2.06698   2.07531   2.09363
 Alpha virt. eigenvalues --    2.09652   2.11784   2.11814   2.12256   2.13651
 Alpha virt. eigenvalues --    2.13709   2.14593   2.16981   2.17715   2.18229
 Alpha virt. eigenvalues --    2.20234   2.20494   2.21021   2.23187   2.23271
 Alpha virt. eigenvalues --    2.25203   2.25935   2.29124   2.30598   2.31610
 Alpha virt. eigenvalues --    2.31636   2.34225   2.34328   2.35019   2.36683
 Alpha virt. eigenvalues --    2.37497   2.38679   2.40918   2.42400   2.43164
 Alpha virt. eigenvalues --    2.43637   2.44471   2.45581   2.47402   2.52880
 Alpha virt. eigenvalues --    2.56362   2.60467   2.61231   2.62430   2.62937
 Alpha virt. eigenvalues --    2.67354   2.68466   2.69997   2.70741   2.71381
 Alpha virt. eigenvalues --    2.73377   2.78596   2.79848   2.80149   2.80466
 Alpha virt. eigenvalues --    2.81158   2.83456   2.85375   2.87671   2.91987
 Alpha virt. eigenvalues --    2.94168   2.94687   3.03063   3.06338   3.10586
 Alpha virt. eigenvalues --    3.11008   3.17369   3.19729   3.24091   3.25400
 Alpha virt. eigenvalues --    3.27880   3.30532   3.33870   3.39345   3.48919
 Alpha virt. eigenvalues --    4.22787   4.26502   4.29086   4.32568   4.34391
 Alpha virt. eigenvalues --    4.36358   4.40763   4.45056   4.45824   4.48160
 Alpha virt. eigenvalues --    4.50147   4.53341   4.55457   4.58086   4.58128
 Alpha virt. eigenvalues --    4.63472   4.70285   4.79049   4.81789   4.84957
 Alpha virt. eigenvalues --    4.87027
          Condensed to atoms (all electrons):
               1          2          3          4          5          6
     1  C   11.856616   0.704388  -0.565556  -2.998187  -3.557236   2.564231
     2  C    0.704388  16.862745  -6.770950  -0.923971  -5.456604   0.609144
     3  C   -0.565556  -6.770950  21.920183   0.796020  -0.636252  -6.141242
     4  C   -2.998187  -0.923971   0.796020  14.464064  -0.483016  -3.958307
     5  C   -3.557236  -5.456604  -0.636252  -0.483016  23.490207  -9.024965
     6  C    2.564231   0.609144  -6.141242  -3.958307  -9.024965  21.797733
     7  N   -0.005024  -0.010236   0.067794   0.222366  -0.084419  -0.039534
     8  C   -0.396045   0.319269  -1.308442  -0.887608   0.514868  -0.229280
     9  N   -0.004781  -0.012482  -0.133777  -0.241169   0.059379   0.035024
    10  O    0.006556  -0.002077  -0.175552  -0.563719   0.443896   0.254784
    11  C   -0.020846   0.009485  -0.133935  -0.378977  -0.007703  -0.017493
    12  C    0.000335   0.001163   0.017428   0.028956  -0.022517  -0.006596
    13  C   -0.000135  -0.000158  -0.002065  -0.007054  -0.001441  -0.000534
    14  H    0.004930   0.084938   0.172181   0.029407   0.031682  -0.025595
    15  H   -0.003606  -0.012694   0.004711   0.015493   0.252313   0.037551
    16  H   -0.003481   0.024131  -0.101310   0.002090   0.036257   0.018930
    17  H   -0.000192   0.001317   0.004381   0.007228  -0.002651   0.000133
    18  H   -0.000001   0.000007   0.000420   0.000565  -0.001485   0.000056
    19  H   -0.000039   0.000060   0.000229  -0.000256  -0.002288  -0.000265
    20  H   -0.000001   0.000008   0.000248  -0.000218  -0.000448  -0.000027
    21  H   -0.000001   0.000004   0.000063  -0.000485   0.000022   0.000007
    22  H    0.000000  -0.000000  -0.000000   0.000021  -0.000023  -0.000002
    23  H   -0.000000   0.000000  -0.000002  -0.000036   0.000004   0.000000
    24  H   -0.000000   0.000000   0.000007   0.000034  -0.000060  -0.000004
    25  H    0.104085   0.332870  -0.199800   0.031787  -0.016500   0.069726
    26  H    0.126415   0.076114  -0.032897   0.003285  -0.152523   0.304890
    27  N   -0.551850   0.025549   0.115589  -0.033773   0.002153   0.098331
    28  O   -0.505814   0.093137  -0.013801   0.039795   0.328284  -0.057976
    29  O   -0.459627  -0.033927   0.205351   0.047584   0.027009   0.098408
    30  O   -0.001256   0.066263   0.077572  -0.150258  -0.017268   0.001517
    31  C    0.000264  -0.022783   0.012093   0.017087  -0.005103  -0.007218
    32  O   -0.000478  -0.000231   0.007069  -0.004797  -0.006678   0.001436
    33  C   -0.001474  -0.000274  -0.017804   0.010379   0.002872  -0.001327
    34  C    0.001362   0.003927   0.011326  -0.014589  -0.002111  -0.000890
    35  H    0.000001  -0.000027   0.000137  -0.000119  -0.000031  -0.000002
    36  H   -0.000000   0.000030   0.000295  -0.000354  -0.000029  -0.000000
    37  H    0.000020   0.000207   0.000457  -0.000783  -0.000044  -0.000003
    38  H   -0.000001  -0.000009  -0.000028   0.000042   0.000002   0.000001
    39  H    0.000025  -0.000434   0.000264  -0.000137   0.000003  -0.000013
               7          8          9         10         11         12
     1  C   -0.005024  -0.396045  -0.004781   0.006556  -0.020846   0.000335
     2  C   -0.010236   0.319269  -0.012482  -0.002077   0.009485   0.001163
     3  C    0.067794  -1.308442  -0.133777  -0.175552  -0.133935   0.017428
     4  C    0.222366  -0.887608  -0.241169  -0.563719  -0.378977   0.028956
     5  C   -0.084419   0.514868   0.059379   0.443896  -0.007703  -0.022517
     6  C   -0.039534  -0.229280   0.035024   0.254784  -0.017493  -0.006596
     7  N    7.846829   0.160871  -0.354298  -0.067985  -0.218528   0.016532
     8  C    0.160871   6.771509   0.473876   0.652516  -0.831209   0.185915
     9  N   -0.354298   0.473876   7.700004  -0.190524   0.354900  -0.062527
    10  O   -0.067985   0.652516  -0.190524   8.339380  -0.093854   0.022907
    11  C   -0.218528  -0.831209   0.354900  -0.093854   7.185856  -0.487276
    12  C    0.016532   0.185915  -0.062527   0.022907  -0.487276   6.324948
    13  C   -0.004532  -0.054983  -0.007359  -0.000734   0.024685  -0.174134
    14  H   -0.003570   0.009096   0.000665   0.000031   0.000166   0.000014
    15  H   -0.012560   0.025364   0.000443  -0.004424   0.003640   0.000028
    16  H    0.148769  -0.002095   0.029608   0.003490   0.012764  -0.000678
    17  H    0.030756   0.033547   0.182409   0.004778  -0.063522   0.000737
    18  H   -0.000504  -0.024664  -0.056307   0.001103   0.444686  -0.052902
    19  H    0.000163  -0.028320  -0.056536   0.001050   0.449416  -0.052387
    20  H   -0.000357  -0.008483   0.005049  -0.000210  -0.066526   0.415470
    21  H   -0.000036  -0.001191   0.005118  -0.000135  -0.080306   0.424160
    22  H    0.000009   0.000405  -0.000078  -0.000037  -0.008780  -0.070994
    23  H    0.000008  -0.001925   0.000272   0.000006   0.028851  -0.124164
    24  H    0.000004  -0.000638   0.000074  -0.000049  -0.005764  -0.069238
    25  H    0.000546   0.003836   0.000007   0.000000   0.000028   0.000000
    26  H   -0.000659   0.000469   0.000003   0.000170   0.000032   0.000002
    27  N   -0.000442   0.002314  -0.000101   0.000077   0.000117  -0.000001
    28  O   -0.000040   0.001817   0.000001   0.000013   0.000013   0.000000
    29  O   -0.000135   0.001123  -0.000000  -0.000001   0.000005   0.000000
    30  O   -0.017694   0.015896   0.009233  -0.000281   0.016723  -0.003638
    31  C   -0.002365  -0.015956  -0.007316  -0.000776   0.004022  -0.003054
    32  O    0.014209   0.013723  -0.024508  -0.000020  -0.029854   0.017798
    33  C   -0.021989  -0.016387  -0.007879  -0.000608   0.022793  -0.005626
    34  C    0.002821  -0.000567   0.001628   0.000037  -0.001694   0.000376
    35  H    0.000045  -0.000153  -0.000049  -0.000000  -0.000028   0.000091
    36  H    0.000054  -0.000065  -0.000022  -0.000000  -0.000009   0.000051
    37  H   -0.000010  -0.000066  -0.000000  -0.000000  -0.000012   0.000012
    38  H    0.000009   0.000023  -0.000003   0.000000  -0.000004   0.000001
    39  H   -0.000033  -0.000152   0.000000  -0.000000  -0.000016   0.000014
              13         14         15         16         17         18
     1  C   -0.000135   0.004930  -0.003606  -0.003481  -0.000192  -0.000001
     2  C   -0.000158   0.084938  -0.012694   0.024131   0.001317   0.000007
     3  C   -0.002065   0.172181   0.004711  -0.101310   0.004381   0.000420
     4  C   -0.007054   0.029407   0.015493   0.002090   0.007228   0.000565
     5  C   -0.001441   0.031682   0.252313   0.036257  -0.002651  -0.001485
     6  C   -0.000534  -0.025595   0.037551   0.018930   0.000133   0.000056
     7  N   -0.004532  -0.003570  -0.012560   0.148769   0.030756  -0.000504
     8  C   -0.054983   0.009096   0.025364  -0.002095   0.033547  -0.024664
     9  N   -0.007359   0.000665   0.000443   0.029608   0.182409  -0.056307
    10  O   -0.000734   0.000031  -0.004424   0.003490   0.004778   0.001103
    11  C    0.024685   0.000166   0.003640   0.012764  -0.063522   0.444686
    12  C   -0.174134   0.000014   0.000028  -0.000678   0.000737  -0.052902
    13  C    5.804096  -0.000000   0.000015   0.000077  -0.001518  -0.006215
    14  H   -0.000000   0.431633  -0.000089   0.005045   0.000005  -0.000000
    15  H    0.000015  -0.000089   0.424857  -0.000081   0.000001  -0.000001
    16  H    0.000077   0.005045  -0.000081   0.258809   0.004376   0.000004
    17  H   -0.001518   0.000005   0.000001   0.004376   0.259426   0.001747
    18  H   -0.006215  -0.000000  -0.000001   0.000004   0.001747   0.519356
    19  H   -0.006049  -0.000000  -0.000001   0.000003   0.001696  -0.042036
    20  H   -0.031605  -0.000000  -0.000000   0.000002   0.000607   0.003974
    21  H   -0.031886   0.000000  -0.000000   0.000002   0.000640  -0.005291
    22  H    0.423163   0.000000  -0.000000  -0.000000  -0.000000  -0.000329
    23  H    0.447842  -0.000000   0.000000  -0.000000  -0.000001  -0.000064
    24  H    0.419531   0.000000  -0.000000  -0.000000  -0.000001   0.002911
    25  H    0.000000  -0.003643   0.000009  -0.000010  -0.000000  -0.000000
    26  H   -0.000000   0.000010  -0.004180   0.000001  -0.000000  -0.000000
    27  N    0.000000  -0.000412   0.000190  -0.000009   0.000000   0.000000
    28  O    0.000000   0.000050  -0.000109   0.000000  -0.000000  -0.000000
    29  O    0.000000   0.000002   0.000052   0.000001  -0.000000  -0.000000
    30  O   -0.000248  -0.001726   0.000005   0.060466   0.002612  -0.000007
    31  C   -0.002036  -0.000404  -0.000027  -0.005895  -0.004884   0.000405
    32  O    0.004609  -0.000012   0.000001  -0.002253   0.040666  -0.000053
    33  C    0.001013   0.001438  -0.000002   0.009514   0.003770   0.000056
    34  C   -0.000086  -0.000273  -0.000000  -0.000984  -0.000763  -0.000001
    35  H    0.000017  -0.000000   0.000000  -0.000006  -0.000003  -0.000000
    36  H    0.000008  -0.000000   0.000000  -0.000007  -0.000004   0.000000
    37  H    0.000000  -0.000001   0.000000  -0.000001   0.000000   0.000000
    38  H   -0.000000   0.000000  -0.000000  -0.000000   0.000000  -0.000000
    39  H    0.000001   0.000000   0.000000  -0.000001   0.000000   0.000000
              19         20         21         22         23         24
     1  C   -0.000039  -0.000001  -0.000001   0.000000  -0.000000  -0.000000
     2  C    0.000060   0.000008   0.000004  -0.000000   0.000000   0.000000
     3  C    0.000229   0.000248   0.000063  -0.000000  -0.000002   0.000007
     4  C   -0.000256  -0.000218  -0.000485   0.000021  -0.000036   0.000034
     5  C   -0.002288  -0.000448   0.000022  -0.000023   0.000004  -0.000060
     6  C   -0.000265  -0.000027   0.000007  -0.000002   0.000000  -0.000004
     7  N    0.000163  -0.000357  -0.000036   0.000009   0.000008   0.000004
     8  C   -0.028320  -0.008483  -0.001191   0.000405  -0.001925  -0.000638
     9  N   -0.056536   0.005049   0.005118  -0.000078   0.000272   0.000074
    10  O    0.001050  -0.000210  -0.000135  -0.000037   0.000006  -0.000049
    11  C    0.449416  -0.066526  -0.080306  -0.008780   0.028851  -0.005764
    12  C   -0.052387   0.415470   0.424160  -0.070994  -0.124164  -0.069238
    13  C   -0.006049  -0.031605  -0.031886   0.423163   0.447842   0.419531
    14  H   -0.000000  -0.000000   0.000000   0.000000  -0.000000   0.000000
    15  H   -0.000001  -0.000000  -0.000000  -0.000000   0.000000  -0.000000
    16  H    0.000003   0.000002   0.000002  -0.000000  -0.000000  -0.000000
    17  H    0.001696   0.000607   0.000640  -0.000000  -0.000001  -0.000001
    18  H   -0.042036   0.003974  -0.005291  -0.000329  -0.000064   0.002911
    19  H    0.521941  -0.005442   0.003962   0.003042  -0.000064  -0.000367
    20  H   -0.005442   0.491890  -0.028710  -0.004682  -0.003246   0.003917
    21  H    0.003962  -0.028710   0.484457   0.003868  -0.003206  -0.004615
    22  H    0.003042  -0.004682   0.003868   0.503609  -0.025327  -0.029818
    23  H   -0.000064  -0.003246  -0.003206  -0.025327   0.497978  -0.025095
    24  H   -0.000367   0.003917  -0.004615  -0.029818  -0.025095   0.502482
    25  H   -0.000000   0.000000  -0.000000   0.000000  -0.000000   0.000000
    26  H   -0.000000   0.000000   0.000000   0.000000  -0.000000   0.000000
    27  N    0.000000   0.000000   0.000000   0.000000   0.000000   0.000000
    28  O   -0.000000  -0.000000   0.000000  -0.000000  -0.000000  -0.000000
    29  O   -0.000000   0.000000  -0.000000  -0.000000  -0.000000   0.000000
    30  O   -0.000001   0.000008   0.000006   0.000000  -0.000000   0.000000
    31  C    0.000244   0.000108  -0.000323  -0.000013  -0.000063   0.000010
    32  O   -0.000046  -0.001000  -0.001234  -0.000007  -0.000021  -0.000003
    33  C    0.000016   0.000239  -0.000189  -0.000004   0.000027  -0.000001
    34  C    0.000002  -0.000015  -0.000008   0.000000  -0.000000   0.000000
    35  H   -0.000000  -0.000000  -0.000000   0.000000  -0.000000   0.000000
    36  H   -0.000000  -0.000000  -0.000000   0.000000  -0.000000   0.000000
    37  H   -0.000000  -0.000000  -0.000000  -0.000000   0.000000  -0.000000
    38  H   -0.000000  -0.000000  -0.000000  -0.000000   0.000000  -0.000000
    39  H    0.000000  -0.000000  -0.000000  -0.000000   0.000000  -0.000000
              25         26         27         28         29         30
     1  C    0.104085   0.126415  -0.551850  -0.505814  -0.459627  -0.001256
     2  C    0.332870   0.076114   0.025549   0.093137  -0.033927   0.066263
     3  C   -0.199800  -0.032897   0.115589  -0.013801   0.205351   0.077572
     4  C    0.031787   0.003285  -0.033773   0.039795   0.047584  -0.150258
     5  C   -0.016500  -0.152523   0.002153   0.328284   0.027009  -0.017268
     6  C    0.069726   0.304890   0.098331  -0.057976   0.098408   0.001517
     7  N    0.000546  -0.000659  -0.000442  -0.000040  -0.000135  -0.017694
     8  C    0.003836   0.000469   0.002314   0.001817   0.001123   0.015896
     9  N    0.000007   0.000003  -0.000101   0.000001  -0.000000   0.009233
    10  O    0.000000   0.000170   0.000077   0.000013  -0.000001  -0.000281
    11  C    0.000028   0.000032   0.000117   0.000013   0.000005   0.016723
    12  C    0.000000   0.000002  -0.000001   0.000000   0.000000  -0.003638
    13  C    0.000000  -0.000000   0.000000   0.000000   0.000000  -0.000248
    14  H   -0.003643   0.000010  -0.000412   0.000050   0.000002  -0.001726
    15  H    0.000009  -0.004180   0.000190  -0.000109   0.000052   0.000005
    16  H   -0.000010   0.000001  -0.000009   0.000000   0.000001   0.060466
    17  H   -0.000000  -0.000000   0.000000  -0.000000  -0.000000   0.002612
    18  H   -0.000000  -0.000000   0.000000  -0.000000  -0.000000  -0.000007
    19  H   -0.000000  -0.000000   0.000000  -0.000000  -0.000000  -0.000001
    20  H    0.000000   0.000000   0.000000  -0.000000   0.000000   0.000008
    21  H   -0.000000   0.000000   0.000000   0.000000  -0.000000   0.000006
    22  H    0.000000   0.000000   0.000000  -0.000000  -0.000000   0.000000
    23  H   -0.000000  -0.000000   0.000000  -0.000000  -0.000000  -0.000000
    24  H    0.000000   0.000000   0.000000  -0.000000   0.000000   0.000000
    25  H    0.442803  -0.000111  -0.035787  -0.002073   0.017232  -0.000015
    26  H   -0.000111   0.448044  -0.035269   0.017451  -0.002238  -0.000000
    27  N   -0.035787  -0.035269   6.946048   0.403492   0.402892   0.000008
    28  O   -0.002073   0.017451   0.403492   7.882227  -0.119688  -0.000000
    29  O    0.017232  -0.002238   0.402892  -0.119688   7.889104   0.000002
    30  O   -0.000015  -0.000000   0.000008  -0.000000   0.000002   8.648719
    31  C   -0.000028  -0.000000   0.000013   0.000001   0.000001   0.332359
    32  O    0.000000  -0.000000   0.000000  -0.000000   0.000000  -0.194485
    33  C   -0.000002  -0.000000   0.000000   0.000000  -0.000000  -0.135191
    34  C    0.000000   0.000000   0.000002   0.000000  -0.000001   0.034745
    35  H    0.000000   0.000000  -0.000000  -0.000000  -0.000000   0.000875
    36  H   -0.000000   0.000000   0.000000   0.000000  -0.000000   0.000548
    37  H    0.000000  -0.000000   0.000000  -0.000000   0.000000  -0.006491
    38  H   -0.000000   0.000000  -0.000000  -0.000000   0.000000   0.002722
    39  H    0.000000  -0.000000  -0.000000  -0.000000  -0.000000  -0.006831
              31         32         33         34         35         36
     1  C    0.000264  -0.000478  -0.001474   0.001362   0.000001  -0.000000
     2  C   -0.022783  -0.000231  -0.000274   0.003927  -0.000027   0.000030
     3  C    0.012093   0.007069  -0.017804   0.011326   0.000137   0.000295
     4  C    0.017087  -0.004797   0.010379  -0.014589  -0.000119  -0.000354
     5  C   -0.005103  -0.006678   0.002872  -0.002111  -0.000031  -0.000029
     6  C   -0.007218   0.001436  -0.001327  -0.000890  -0.000002  -0.000000
     7  N   -0.002365   0.014209  -0.021989   0.002821   0.000045   0.000054
     8  C   -0.015956   0.013723  -0.016387  -0.000567  -0.000153  -0.000065
     9  N   -0.007316  -0.024508  -0.007879   0.001628  -0.000049  -0.000022
    10  O   -0.000776  -0.000020  -0.000608   0.000037  -0.000000  -0.000000
    11  C    0.004022  -0.029854   0.022793  -0.001694  -0.000028  -0.000009
    12  C   -0.003054   0.017798  -0.005626   0.000376   0.000091   0.000051
    13  C   -0.002036   0.004609   0.001013  -0.000086   0.000017   0.000008
    14  H   -0.000404  -0.000012   0.001438  -0.000273  -0.000000  -0.000000
    15  H   -0.000027   0.000001  -0.000002  -0.000000   0.000000   0.000000
    16  H   -0.005895  -0.002253   0.009514  -0.000984  -0.000006  -0.000007
    17  H   -0.004884   0.040666   0.003770  -0.000763  -0.000003  -0.000004
    18  H    0.000405  -0.000053   0.000056  -0.000001  -0.000000   0.000000
    19  H    0.000244  -0.000046   0.000016   0.000002  -0.000000  -0.000000
    20  H    0.000108  -0.001000   0.000239  -0.000015  -0.000000  -0.000000
    21  H   -0.000323  -0.001234  -0.000189  -0.000008  -0.000000  -0.000000
    22  H   -0.000013  -0.000007  -0.000004   0.000000   0.000000   0.000000
    23  H   -0.000063  -0.000021   0.000027  -0.000000  -0.000000  -0.000000
    24  H    0.000010  -0.000003  -0.000001   0.000000   0.000000   0.000000
    25  H   -0.000028   0.000000  -0.000002   0.000000   0.000000  -0.000000
    26  H   -0.000000  -0.000000  -0.000000   0.000000   0.000000   0.000000
    27  N    0.000013   0.000000   0.000000   0.000002  -0.000000   0.000000
    28  O    0.000001  -0.000000   0.000000   0.000000  -0.000000   0.000000
    29  O    0.000001   0.000000  -0.000000  -0.000001  -0.000000  -0.000000
    30  O    0.332359  -0.194485  -0.135191   0.034745   0.000875   0.000548
    31  C    5.360666   0.486351  -0.589880  -0.050837  -0.069667  -0.056655
    32  O    0.486351   8.576384  -0.301218   0.036772  -0.001075  -0.001815
    33  C   -0.589880  -0.301218   7.004406  -0.148182   0.432997   0.421659
    34  C   -0.050837   0.036772  -0.148182   5.701495  -0.047908  -0.048765
    35  H   -0.069667  -0.001075   0.432997  -0.047908   0.496150  -0.025488
    36  H   -0.056655  -0.001815   0.421659  -0.048765  -0.025488   0.496035
    37  H   -0.010264   0.000095  -0.044680   0.410918  -0.003908   0.003594
    38  H    0.037678  -0.000189  -0.092084   0.388722  -0.002386  -0.002365
    39  H   -0.008609   0.000148  -0.048230   0.413342   0.003602  -0.003915
              37         38         39
     1  C    0.000020  -0.000001   0.000025
     2  C    0.000207  -0.000009  -0.000434
     3  C    0.000457  -0.000028   0.000264
     4  C   -0.000783   0.000042  -0.000137
     5  C   -0.000044   0.000002   0.000003
     6  C   -0.000003   0.000001  -0.000013
     7  N   -0.000010   0.000009  -0.000033
     8  C   -0.000066   0.000023  -0.000152
     9  N   -0.000000  -0.000003   0.000000
    10  O   -0.000000   0.000000  -0.000000
    11  C   -0.000012  -0.000004  -0.000016
    12  C    0.000012   0.000001   0.000014
    13  C    0.000000  -0.000000   0.000001
    14  H   -0.000001   0.000000   0.000000
    15  H    0.000000  -0.000000   0.000000
    16  H   -0.000001  -0.000000  -0.000001
    17  H    0.000000   0.000000   0.000000
    18  H    0.000000  -0.000000   0.000000
    19  H   -0.000000  -0.000000   0.000000
    20  H   -0.000000  -0.000000  -0.000000
    21  H   -0.000000  -0.000000  -0.000000
    22  H   -0.000000  -0.000000  -0.000000
    23  H    0.000000   0.000000   0.000000
    24  H   -0.000000  -0.000000  -0.000000
    25  H    0.000000  -0.000000   0.000000
    26  H   -0.000000   0.000000  -0.000000
    27  N    0.000000  -0.000000  -0.000000
    28  O   -0.000000  -0.000000  -0.000000
    29  O    0.000000   0.000000  -0.000000
    30  O   -0.006491   0.002722  -0.006831
    31  C   -0.010264   0.037678  -0.008609
    32  O    0.000095  -0.000189   0.000148
    33  C   -0.044680  -0.092084  -0.048230
    34  C    0.410918   0.388722   0.413342
    35  H   -0.003908  -0.002386   0.003602
    36  H    0.003594  -0.002365  -0.003915
    37  H    0.487055  -0.029829  -0.022230
    38  H   -0.029829   0.550662  -0.029971
    39  H   -0.022230  -0.029971   0.486579
 Mulliken charges:
               1
     1  C   -0.293598
     2  C    0.032105
     3  C   -1.180401
     4  C    0.931610
     5  C    0.292445
     6  C   -0.380626
     7  N   -0.666837
     8  C    0.621795
     9  N   -0.697976
    10  O   -0.629808
    11  C   -0.111846
    12  C   -0.321203
    13  C   -0.792286
    14  H    0.264430
    15  H    0.273102
    16  H    0.502471
    17  H    0.492705
    18  H    0.214570
    19  H    0.212273
    20  H    0.229450
    21  H    0.235308
    22  H    0.205979
    23  H    0.208226
    24  H    0.206684
    25  H    0.255040
    26  H    0.250992
    27  N   -0.339132
    28  O   -0.066781
    29  O   -0.073147
    30  O   -0.734886
    31  C    0.612853
    32  O   -0.629285
    33  C   -0.478147
    34  C   -0.689798
    35  H    0.216934
    36  H    0.217220
    37  H    0.215965
    38  H    0.177008
    39  H    0.216591
 Sum of Mulliken charges =  -1.00000
 Mulliken charges with hydrogens summed into heavy atoms:
               1
     1  C   -0.293598
     2  C    0.287145
     3  C   -0.915971
     4  C    0.931610
     5  C    0.565547
     6  C   -0.129633
     7  N   -0.164366
     8  C    0.621795
     9  N   -0.205271
    10  O   -0.629808
    11  C    0.314996
    12  C    0.143554
    13  C   -0.171398
    27  N   -0.339132
    28  O   -0.066781
    29  O   -0.073147
    30  O   -0.734886
    31  C    0.612853
    32  O   -0.629285
    33  C   -0.043992
    34  C   -0.080233
 Electronic spatial extent (au):  <R**2>=          10847.7158
 Charge=             -1.0000 electrons
 Dipole moment (field-independent basis, Debye):
    X=             -1.9479    Y=             -2.2867    Z=             -0.1832  Tot=              3.0095
 Quadrupole moment (field-independent basis, Debye-Ang):
   XX=           -208.5220   YY=           -153.0449   ZZ=           -129.4676
   XY=              9.3272   XZ=             -0.3983   YZ=              0.0902
 Traceless Quadrupole moment (field-independent basis, Debye-Ang):
   XX=            -44.8438   YY=             10.6333   ZZ=             34.2106
   XY=              9.3272   XZ=             -0.3983   YZ=              0.0902
 Octapole moment (field-independent basis, Debye-Ang**2):
  XXX=           -350.2098  YYY=             -7.9576  ZZZ=              1.1389  XYY=             25.4166
  XXY=            -44.3149  XXZ=             -2.6498  XZZ=              4.2810  YZZ=              0.6266
  YYZ=             -1.1332  XYZ=             -0.6782
 Hexadecapole moment (field-independent basis, Debye-Ang**3):
 XXXX=         -13615.8149 YYYY=          -4593.3932 ZZZZ=           -182.9090 XXXY=             27.7068
 XXXZ=            -19.2680 YYYX=            -12.2583 YYYZ=             -8.5233 ZZZX=              1.7744
 ZZZY=             -0.8602 XXYY=          -2506.4732 XXZZ=          -1697.6481 YYZZ=           -728.7072
 XXYZ=              9.3616 YYXZ=              5.0722 ZZXY=              0.9708
 N-N= 1.582973563652D+03 E-N=-5.624488522054D+03  KE= 1.036828905029D+03
 D1PCM: PCM CHGder 1st derivatives, ID1Alg=3 FixD1E=F DoIter=F DoCFld=F I1PDM=0.
 Calling FoFJK, ICntrl=      2127 FMM=F ISym2X=0 I1Cent= 0 IOpClX= 0 NMat=1 NMatS=1 NMatT=0.
 ***** Axes restored to original set *****
 -------------------------------------------------------------------
 Center     Atomic                   Forces (Hartrees/Bohr)
 Number     Number              X              Y              Z
 -------------------------------------------------------------------
      1        6           0.025920366   -0.015173984    0.012734526
      2        6           0.004991944   -0.000150479    0.001815317
      3        6          -0.007780413    0.006705614   -0.004546105
      4        6           0.031566904   -0.012825474    0.014282289
      5        6          -0.012159286    0.005029792   -0.005250862
      6        6          -0.002761078   -0.008366176    0.001124008
      7        7          -0.051894681   -0.059123850   -0.001416431
      8        6           0.018587168    0.001664978    0.005520258
      9        7          -0.037667353   -0.076362057    0.009207642
     10        8           0.006292970    0.028876261   -0.006122643
     11        6           0.000165841    0.002941066   -0.000947000
     12        6          -0.005314146   -0.004442225   -0.000038530
     13        6           0.004577153    0.000176852    0.001286672
     14        1           0.002789967   -0.003980480    0.002389198
     15        1           0.008129884   -0.004854468    0.003796481
     16        1           0.008769325    0.052797002   -0.008609521
     17        1           0.017493603    0.057996689   -0.008676129
[...]
 00004215,-0.00004479,0.00001890,-0.00004154,0.00002035,0.00005233,0.00
 001012,0.00001041,0.00047939,-0.00761757,-0.00103091,0.00435546,-0.001
 30860,0.03419785,0.00084327,-0.00018262,-0.00375829,0.00314881,-0.0481
 4801,0.03510100,-0.00148919,0.00027948,-0.00754617,-0.00306394,0.05321
 152,-0.00004835,0.00003771,-0.00002949,0.00002759,-0.00001290,0.000021
 35,-0.00006147,-0.00004658,-0.00000014,0.00012157,-0.00002864,0.000047
 36,-0.00002314,0.00003934,-0.00001929,0.00002005,0.00001418,0.00000336
 ,0.00014395,0.00038247,-0.00009017,-0.00026271,-0.00001775,-0.00010054
 ,0.00008769,-0.00002662,0.00003963,0.00009750,0.00007507,0.00001704,-0
 .00006186,-0.00001224,-0.00002360,0.00002070,0.00000473,-0.00002304,-0
 .00000159,-0.00000071,0.00000531,0.00004623,-0.00003467,0.00000862,0.0
 0000055,0.00000032,-0.00000369,-0.00021942,-0.00058601,0.00016490,-0.0
 0004319,0.00001908,0.00002706,0.00001203,0.00000756,0.00000615,0.00001
 180,-0.00000301,0.00000560,-0.00000526,0.00000410,-0.00000374,-0.00000
 823,0.00000781,0.00001040,-0.00000499,-0.00000337,0.00000442,0.0000130
 9,-0.00000446,0.00000081,0.00000250,0.00000328,-0.00000022,0.00000448,
 -0.00000664,-0.00000174,-0.00000178,0.00000123,-0.00000290,0.00007799,
 -0.00006228,0.00004311,-0.00001731,0.00005553,-0.00002375,-0.00003514,
 0.00000560,-0.00000898,0.00112091,0.00263280,0.00030049,-0.00411452,-0
 .00182658,-0.00922624,0.00065439,-0.00032808,0.00247798,-0.03952033,0.
 03252225,-0.30365235,-0.00043953,0.00036332,-0.00476187,0.04617175,-0.
 03482589,0.32844165,0.00002885,-0.00001225,0.00001232,-0.00001157,0.00
 000707,-0.00001099,0.00004597,-0.00001460,0.00000205,-0.00009183,0.000
 05813,-0.00004176,0.00001829,-0.00002107,0.00001157,-0.00001896,0.0000
 0793,-0.00000880,0.00010210,-0.00003298,-0.00000864,-0.00012305,0.0000
 7627,-0.00005742,0.00004515,-0.00009048,0.00001551,0.00001571,-0.00004
 736,0.00002144,0.00001785,0.00001179,0.00001321,-0.00000392,0.00001071
 ,-0.00000325,0.00000202,-0.00000512,0.00000241,-0.00002648,-0.00000858
 ,0.00002085,-0.00000413,0.00000571,-0.00000050,-0.00003014,0.00006725,
 0.00004967,0.00004630,0.00018078,-0.00003261,-0.00000189,-0.00000495,-
 0.00000411,-0.00000220,-0.00000158,0.00000228,0.00000791,-0.00000718,-
 0.00000286,0.00000688,0.00000112,0.00000918,-0.00000240,-0.00000009,0.
 00000019,-0.00000202,0.00000052,-0.00000056,-0.00000243,-0.00000221,-0
 .00000222,0.00000385,-0.00000633,0.00001104,0.00000029,0.00000077,0.00
 000121,-0.00003490,-0.00001104,-0.00000230,0.00000448,0.00000886,-0.00
 000436,0.00002368,0.00001360,-0.00000268,0.00071919,-0.00015608,0.0011
 2621,0.00373607,-0.00502287,-0.00622492,-0.00037092,-0.00106855,0.0007
 1920,-0.14239488,0.10221991,0.07511115,-0.01979460,0.02021132,0.015338
 76,0.00272478,-0.00343400,-0.00197132,0.15874394,0.00008761,-0.0000606
 2,0.00004939,-0.00004921,0.00002531,-0.00001966,0.00012439,0.00005967,
 0.00000961,-0.00025990,0.00008816,-0.00011094,0.00004698,-0.00006877,0
 .00005072,-0.00004347,-0.00001282,-0.00000637,-0.00015623,-0.00071041,
 0.00010679,0.00032291,0.00002790,0.00004112,-0.00008811,-0.00003260,-0
 .00005369,-0.00014537,-0.00012310,0.00003715,0.00008783,0.00001320,0.0
 0001028,-0.00001312,-0.00002418,-0.00002375,-0.00000116,0.00000569,0.0
 0000351,-0.00007780,0.00003833,-0.00004805,-0.00000175,0.00000050,-0.0
 0000417,0.00029981,0.00114371,-0.00005651,0.00005182,0.00018580,0.0001
 0442,-0.00002013,-0.00000070,-0.00000611,-0.00001572,-0.00000904,0.000
 00275,0.00000074,0.00000038,0.00001050,0.00000961,0.00000143,0.0000099
 9,-0.00000416,-0.00000446,0.00000049,-0.00001114,0.00000203,-0.0000079
 6,0.00000191,0.00000435,0.00000352,0.00000235,-0.00000136,-0.00000321,
 0.00000472,-0.00000361,-0.00000020,-0.00012507,0.00006588,-0.00006534,
 0.00002371,-0.00006168,0.00003221,0.00006122,0.00000788,0.00001820,-0.
 00228603,-0.00446113,0.00520601,0.02214112,-0.01891097,-0.01886057,-0.
 00279864,0.00225750,0.00310729,0.10375673,-0.15756865,-0.08428287,-0.0
 0594491,0.00550916,0.00434669,-0.00317177,0.00298721,0.00217727,-0.110
 98691,0.16860075,0.00001394,-0.00001012,0.00000677,-0.00000879,0.00000
 982,-0.00000484,0.00000826,0.00000086,-0.00000093,-0.00000822,0.000011
 14,-0.00000347,0.00000312,-0.00000982,-0.00000069,-0.00000699,-0.00000
 036,-0.00000136,0.00002574,0.00008295,0.00004052,-0.00002902,0.0000525
 8,-0.00002187,-0.00003343,-0.00007137,0.00004747,-0.00000175,-0.000036
 18,0.00000474,0.00004926,0.00000047,0.00001395,-0.00000570,0.00000120,
 -0.00001447,0.00000102,-0.00000435,0.00000517,-0.00000133,-0.00000326,
 0.00000490,0.00000007,0.00000083,-0.00000046,-0.00001899,-0.00015113,-
 0.00008825,0.00004948,0.00009661,-0.00008284,-0.00000606,0.00000106,-0
 .00000468,-0.00000933,0.00000035,0.00000115,0.00000285,-0.00000555,0.0
 0001583,0.00001054,-0.00001089,-0.00000098,-0.00000064,0.00000057,-0.0
 0000102,-0.00001163,0.00000319,-0.00000491,0.00000032,0.00000267,0.000
 00087,-0.00000229,0.00000180,0.00000010,-0.00000016,0.00000032,0.00000
 037,-0.00002572,0.00002455,-0.00001667,0.00000573,-0.00001970,0.000009
 27,0.00001117,-0.00000317,0.00000397,0.00034824,0.00111584,-0.00223866
 ,-0.00500342,0.00807519,0.00507566,-0.00094312,-0.00097568,-0.00030552
 ,0.07476840,-0.08086292,-0.10304727,-0.00573746,0.00612315,0.00407944,
 0.01981383,-0.02227291,-0.01579428,-0.08213557,0.08807962,0.11092269,-
 0.00001523,0.00001640,-0.00000786,0.00002045,-0.00000834,0.00000002,-0
 .00000993,-0.00002347,-0.00000826,0.00000987,0.00000688,-0.00000411,-0
 .00000015,0.00000216,-0.00000250,0.00000249,0.00000507,-0.00000328,0.0
 0005617,0.00006411,-0.00002964,-0.00013980,0.00002541,-0.00002326,0.00
 003441,-0.00009593,0.00001036,0.00003866,-0.00000651,0.00000156,-0.000
 01860,0.00000133,0.00000366,0.00000049,0.00001188,0.00001154,0.0000028
 0,-0.00000356,-0.00000126,0.00000331,-0.00002349,0.00005110,-0.0000026
 7,0.00000327,0.00000204,-0.00003584,-0.00012337,0.00005863,0.00001275,
 0.00009426,-0.00001470,0.00000174,-0.00000735,-0.00000042,0.00000346,-
 0.00000004,-0.00000014,0.00000580,-0.00000255,-0.00001394,-0.00000224,
 0.00000712,0.00000424,-0.00000059,0.00000073,0.00000064,0.00000478,-0.
 00000006,0.00000344,-0.00000345,-0.00000521,-0.00000349,0.00000223,0.0
 0000192,0.00000490,-0.00000099,0.00000066,0.00000118,0.00003625,-0.000
 01511,0.00002096,-0.00000858,0.00001608,-0.00001089,-0.00001804,-0.000
 00245,-0.00000807,0.00159021,-0.00104199,0.00017186,-0.00094505,0.0027
 3059,-0.00074977,0.00065013,-0.00073775,0.00013639,-0.02026970,0.02045
 191,0.01629637,-0.14750104,0.10482387,0.07933019,0.00133713,0.00030444
 ,-0.00028466,-0.00592871,-0.00209954,-0.00210565,0.16265895,-0.0000434
 2,0.00002926,-0.00002237,0.00002954,-0.00001285,0.00001205,-0.00004463
 ,-0.00003023,0.00000101,0.00008684,-0.00003727,0.00002339,-0.00001538,
 0.00002848,-0.00001270,0.00001908,0.00000373,0.00000521,-0.00001484,0.
 00014975,-0.00004355,-0.00001793,-0.00004764,0.00001378,0.00001838,0.0
 0007305,-0.00001507,0.00002353,0.00005741,-0.00001304,-0.00002516,-0.0
 0000654,-0.00000923,0.00000196,-0.00000303,-0.00000139,-0.00000183,0.0
 0000012,-0.00000089,0.00002254,-0.00000217,0.00002548,0.00000201,-0.00
 000117,0.00000026,-0.00005450,-0.00023551,0.00004768,-0.00004622,-0.00
 011278,0.00002579,0.00000447,0.00000613,0.00000325,0.00000559,0.000002
 66,-0.00000147,-0.00000426,0.00000203,0.00000553,-0.00000289,-0.000002
 77,-0.00000590,0.00000177,0.00000056,-0.00000075,0.00000161,-0.0000015
 4,0.00000014,0.00000169,0.00000314,0.00000184,0.00000182,0.00000038,-0
 .00000153,-0.00000054,0.00000050,-0.00000117,0.00007574,-0.00001932,0.
 00002811,-0.00001571,0.00002070,-0.00001127,-0.00004206,-0.00000953,-0
 .00000671,-0.00065939,0.00041831,-0.00019594,-0.00047103,-0.00028012,0
 .00078812,0.00033958,0.00030761,-0.00013623,-0.00442600,0.00506443,0.0
 0397574,0.10665561,-0.15839218,-0.08364250,0.00064762,0.00022143,0.000
 23149,-0.00186942,0.00037552,0.00016340,-0.11513945,0.16855663,-0.0000
 1106,-0.00000770,-0.00000360,0.00000572,0.00000239,0.00001144,-0.00004
 722,0.00005191,-0.00001620,0.00009151,-0.00006182,0.00005679,-0.000022
 73,0.00000438,-0.00001036,0.00001355,-0.00002052,0.00001364,-0.0001284
 9,-0.00004770,-0.00001880,0.00016659,0.00000089,0.00004337,-0.00006104
 ,0.00005410,-0.00003034,-0.00005123,-0.00001702,-0.00000504,0.00002473
 ,0.00000490,0.00000354,-0.00000449,-0.00000943,0.00000125,-0.00000060,
 0.00000320,-0.00000109,0.00004878,0.00005842,-0.00005484,0.00000390,-0
 .00000850,0.00000262,0.00003737,0.00011366,-0.00004288,0.00001361,-0.0
 0002177,0.00000806,-0.00000588,-0.00000167,-0.00000112,-0.00000567,-0.
 00000188,-0.00000103,0.00000129,0.00000183,0.00000036,0.00000205,0.000
 00088,0.00000049,0.00000030,-0.00000074,-0.00000083,-0.00000348,0.0000
 0111,-0.00000114,-0.00000009,-0.00000011,0.00000131,-0.00001339,0.0000
 2035,-0.00002180,-0.00000106,-0.00000212,-0.00000056,-0.00000731,0.000
 05915,-0.00002773,0.00000703,-0.00005248,0.00002344,-0.00000644,-0.000
 02386,0.00001113,-0.00119026,0.00007037,-0.00012351,0.00112984,-0.0010
 6263,0.00072964,-0.00021677,0.00032387,-0.00038900,-0.00589868,0.00634
 886,0.00424415,0.08020546,-0.08264781,-0.11178900,0.00041644,0.0006278
 4,0.00055097,-0.00205665,-0.00034448,0.00071403,-0.08522731,0.09186964
 ,0.11670646,0.00007451,-0.00004040,0.00003802,-0.00002906,0.00002410,-
 0.00001944,0.00009940,0.00000542,0.00002266,-0.00021254,0.00011883,-0.
 00010623,0.00004231,-0.00006429,0.00003557,-0.00004528,0.00000552,-0.0
 0001544,0.00014690,-0.00019178,0.00011356,-0.00022490,0.00019328,-0.00
 013756,-0.00004560,-0.00046212,0.00017470,0.00000114,-0.00018730,0.000
 06942,0.00009907,0.00000867,0.00003236,-0.00000674,0.00001146,-0.00001
 790,0.00000753,-0.00000756,0.00000815,-0.00005523,-0.00000237,-0.00000
 342,-0.00000735,0.00000872,-0.00000525,0.00005585,0.00029074,-0.000088
 88,0.00022094,0.00067612,-0.00022462,-0.00001663,-0.00001722,-0.000009
 58,-0.00002387,-0.00001434,0.00000778,0.00002056,-0.00000429,-0.000016
 23,0.00001350,0.00000995,0.00003297,-0.00001044,-0.00000500,0.00000367
 ,-0.00000789,0.00000538,-0.00000448,-0.00000621,-0.00000629,-0.0000042
 8,0.00000667,-0.00000591,0.00000562,0.00000191,-0.00000077,0.00000083,
 -0.00009017,0.00003508,-0.00004006,0.00001380,-0.00002999,0.00001539,0
 .00004723,0.00001363,0.00000896,0.00144947,-0.00066683,0.00050558,-0.0
 0459018,0.00470606,-0.00333243,-0.00274191,-0.00355024,0.00029817,-0.0
 0701379,-0.03253378,0.01006055,-0.06307790,-0.05785767,0.01708105,0.00
 132022,0.00045189,-0.00030357,0.00113188,0.00056717,0.00067514,0.00538
 989,0.01819462,-0.00721587,0.06799886,0.00010669,-0.00007448,0.0000588
 2,-0.00005698,0.00004260,-0.00003043,0.00010532,0.00006118,0.00001458,
 -0.00020550,0.00008884,-0.00009519,0.00003675,-0.00007934,0.00004049,-
 0.00005218,-0.00001294,-0.00001059,0.00003905,-0.00034590,0.00014165,0
 .00003032,0.00019355,-0.00006507,-0.00007838,-0.00025864,0.00008020,-0
 .00007274,-0.00019580,0.00005259,0.00010043,0.00001757,0.00002787,-0.0
 0000581,0.00000669,-0.00000809,0.00000658,-0.00000323,0.00000454,-0.00
 004290,0.00005796,-0.00004782,-0.00000449,0.00000255,-0.00000262,0.000
 12846,0.00057524,-0.00017263,0.00019471,0.00044149,-0.00012576,-0.0000
 1651,-0.00001730,-0.00001112,-0.00002208,-0.00001217,0.00000821,0.0000
 1723,-0.00000509,-0.00001465,0.00001140,0.00000831,0.00002608,-0.00000
 887,-0.00000447,0.00000468,-0.00000792,0.00000671,-0.00000434,-0.00000
 518,-0.00000754,-0.00000480,-0.00000678,0.00000663,-0.00000626,0.00000
 160,-0.00000225,0.00000101,-0.00018077,0.00009729,-0.00009134,0.000037
 53,-0.00008764,0.00004442,0.00009130,0.00000670,0.00002541,-0.00143038
 ,-0.00076994,0.00004172,0.00109750,0.00171185,0.00007668,-0.00174032,-
 0.00110661,-0.00022092,0.00087102,-0.00445779,0.00152278,-0.05841604,-
 0.28022749,0.06486888,-0.00017062,0.00003316,-0.00047235,-0.00038900,0
 .00051799,0.00011991,-0.00533721,-0.01835841,0.00624655,0.06528071,0.3
 0437566,-0.00001631,0.00001436,-0.00001277,0.00001012,-0.00000559,0.00
 001243,-0.00001349,-0.00001649,0.00001429,0.00001407,0.00000276,0.0000
 0176,-0.00000146,0.00001028,-0.00000421,0.00000565,0.00000671,0.000000
 03,0.00002621,0.00008163,-0.00000753,-0.00008015,-0.00001431,-0.000022
 42,0.00001410,-0.00004664,0.00002684,0.00002766,0.00001594,0.00000265,
 -0.00000684,-0.00000304,0.00000046,-0.00000119,0.00000263,0.00000176,0
 .00000002,-0.00000127,0.00000021,0.00001087,-0.00003638,-0.00001967,-0
 .00000041,0.00000153,-0.00000102,-0.00002575,-0.00013994,0.00002751,-0
 .00000483,0.00004432,-0.00002398,0.00000131,0.00000032,0.00000113,0.00
 000079,0.00000040,-0.00000111,-0.00000002,0.00000058,-0.00000138,0.000
 00044,-0.00000021,-0.00000002,0.00000047,0.00000083,-0.00000126,0.0000
 0034,-0.00000053,0.00000134,-0.00000018,-0.00000031,0.00000017,0.00000
 565,-0.00000568,-0.00000003,0.,0.00000058,-0.00000026,0.00003969,-0.00
 002516,0.00002046,-0.00000962,0.00002292,-0.00001159,-0.00001961,0.000
 00173,-0.00000586,0.00091102,0.00035189,0.00078312,-0.00212780,0.00121
 680,-0.00054874,-0.00018706,-0.00071582,0.00021931,-0.00228112,-0.0090
 0025,0.00150760,0.01732569,0.06502783,-0.06885096,0.00052144,-0.000248
 96,0.00025604,0.00043483,0.00040784,0.00001700,-0.00535735,-0.01532657
 ,0.00437728,-0.01734300,-0.07258807,0.06856209,-0.00002834,0.00001596,
 -0.00001532,0.00002510,-0.00000710,0.00001196,-0.00004642,0.00000293,-
 0.00001297,0.00008026,-0.00003429,0.00004056,-0.00001757,0.00001246,-0
 .00000810,0.00001374,-0.00000491,0.00000661,-0.00003011,0.00008170,-0.
 00002640,-0.00002657,-0.00000186,-0.00002702,-0.00001550,-0.00002975,0
 .00003198,0.00000829,0.00000352,0.00000890,-0.00000441,-0.00000191,-0.
 00000379,0.00000551,-0.00000366,-0.00001325,-0.00000025,0.00000096,0.0
 0000341,0.00004193,0.00000037,0.00000141,0.00000150,-0.00000344,-0.000
 00047,-0.00002050,-0.00012157,0.00002704,0.00001791,0.00004903,-0.0000
 2452,0.00000025,0.00000144,0.00000129,-0.00000146,-0.00000465,0.000002
 14,-0.00000102,0.00000368,-0.00000241,-0.00000144,0.00000493,0.0000084
 3,-0.00000341,-0.00000268,0.00000188,0.00000290,-0.00000075,-0.0000011
 5,0.00000079,0.00000117,0.00000024,-0.00000601,0.00001355,-0.00000498,
 -0.00000124,-0.00000087,-0.00000076,0.00004420,0.00001398,0.00000656,-
 0.00000720,-0.00000953,0.00000225,-0.00002797,-0.00001716,-0.00000206,
 0.00037290,-0.00049884,0.00096305,-0.00016966,0.00129134,-0.00128621,0
 .00039880,-0.00020968,0.00063598,-0.00514651,0.00339903,-0.03365115,-0
 .05342041,0.00500933,-0.03932283,-0.00641071,-0.00184734,-0.00120638,0
 .00141982,0.00070951,0.00030814,0.00303864,-0.00323935,0.02000755,0.00
 006402,0.00009405,0.00812581,0.05985015,-0.00003126,0.00002996,-0.0000
 2412,0.00001975,-0.00000762,0.00001813,-0.00001762,-0.00005467,0.00002
 237,0.00001783,0.00001488,0.00001419,0.00000139,0.00002090,-0.00000957
 ,0.00000822,0.00001693,-0.00000261,0.00007655,0.00017009,-0.00004359,-
 0.00013492,-0.00004221,-0.00003206,0.00005553,0.00001225,0.00001212,0.
 00005604,0.00006019,-0.00000257,-0.00003892,-0.00000774,-0.00000914,0.
 00000361,0.00000608,0.00000365,-0.00000086,-0.00000215,-0.00000050,0.0
 0001587,-0.00007351,-0.00001400,-0.00000059,0.00000396,-0.00000250,-0.
 00007734,-0.00029651,0.00008064,-0.00004574,-0.00006675,0.00001436,0.0
 0000829,0.00000462,0.00000345,0.00000814,0.00000356,-0.00000095,-0.000
 00463,0.00000033,0.00000097,-0.00000343,-0.00000198,-0.00000487,0.0000
 0139,0.00000157,-0.00000053,0.00000424,-0.00000178,0.00000230,0.000001
 08,0.00000094,-0.00000006,0.00001184,-0.00001397,0.00000425,-0.0000000
 8,0.00000173,-0.00000066,0.00007453,-0.00005348,0.00004129,-0.00001873
 ,0.00005059,-0.00002453,-0.00003508,0.00000583,-0.00001170,0.00036794,
 0.00017491,0.00027413,-0.00082887,0.00042379,-0.00126063,0.00056958,-0
 .00004256,0.00029856,-0.00046816,0.00039883,-0.00648923,0.00507349,-0.
 05104691,0.02928294,-0.00145650,0.00019944,-0.00028635,0.00031092,0.00
 013575,0.00046933,-0.00389470,0.00223122,-0.02153206,0.00504078,-0.002
 22497,0.03096335,-0.00466959,0.04996844,0.00002239,-0.00000433,0.00000
 685,-0.00001438,0.00000657,0.00000150,0.00003539,-0.00001412,0.0000372
 4,-0.00008565,0.00005707,-0.00005557,0.00001901,-0.00001342,0.00001383
 ,-0.00001701,0.00001392,-0.00000851,0.00009778,0.00000677,0.00004992,-
 0.00014891,0.00002547,-0.00007092,0.00002951,-0.00010279,0.00007323,0.
 00003317,-0.00001669,0.00002493,-0.00000724,-0.00000311,-0.00000562,0.
 00000766,0.00000616,-0.00001343,0.00000150,-0.00000232,0.00000371,-0.0
 0002105,-0.00006892,-0.00001524,-0.00000281,0.00000511,-0.00000601,0.0
 0000532,-0.00004556,-0.00001079,0.00002987,0.00011168,-0.00005473,0.00
 000384,0.00000077,0.00000106,-0.00000078,-0.00000399,0.00000453,0.0000
 0105,0.00000147,-0.00000393,-0.00000157,0.00000275,0.00001023,-0.00000
 450,-0.00000224,0.00000345,0.00000391,-0.00000058,-0.00000059,0.000000
 05,0.00000039,-0.00000133,0.00001225,-0.00001692,0.00000096,0.00000126
 ,0.00000028,-0.00000148,-0.00001615,-0.00003431,0.00000272,-0.00000100
 ,0.00002869,-0.00000853,0.00001477,0.00002096,0.00000230,0.00180805,-0
 .00026192,0.00132602,-0.00106031,0.00234812,-0.00124234,0.00031593,-0.
 00076174,0.00045495,-0.00110440,0.00002364,-0.00620199,-0.04095910,0.0
 2756059,-0.31378593,-0.00152652,0.00001654,0.00133381,-0.00033156,0.00
 007851,0.00066928,-0.00225249,0.00222635,-0.01496108,-0.00030188,0.000
 56497,-0.00632064,0.04541459,-0.03175381,0.33874813\\-0.00000203,0.000
 00133,-0.00000295,0.00000161,-0.00000149,-0.00000336,-0.00000117,0.000
 00401,-0.00000730,0.00000366,0.00000839,0.00001366,-0.00000282,-0.0000
 0402,-0.00000330,0.00000542,0.00000122,-0.00000346,0.00001104,0.000010
 48,-0.00001108,-0.00000874,0.00001168,0.00000685,0.00001230,0.00000594
 ,-0.00000880,-0.00000471,-0.00000598,-0.00000420,-0.00000194,-0.000004
 76,-0.00000599,0.00000315,-0.00000032,0.00001053,-0.00000022,-0.000005
 29,-0.00000315,-0.00000121,0.00000058,0.00000067,0.00000472,0.00000108
 ,-0.00000105,-0.00000457,-0.00001684,0.00000548,-0.00000431,-0.0000113
 6,0.00000202,0.00000230,-0.00000156,-0.00000223,-0.00000055,-0.0000027
 2,0.00000113,-0.00000223,-0.00000208,0.00000177,-0.00000453,-0.0000051
 9,-0.00000097,0.00000021,-0.00000333,0.00000270,-0.00000100,-0.0000024
 6,0.00000031,0.00000061,-0.00000393,-0.00000061,-0.00000042,0.00000354
 ,0.00000058,0.00000303,0.00000121,-0.00000120,-0.00001025,0.00001017,0
 .00000158,0.00001563,0.00000341,-0.00000130,0.00000686,-0.00000772,0.0
 0000103,-0.00000788,0.00000966,-0.00000173,0.00001795,-0.00000687,-0.0
 0000307,-0.00000980,0.00000066,0.00000585,-0.00000147,0.00000068,0.000
 00661,-0.00000406,0.00000412,-0.00000072,-0.00000134,0.00000110,-0.000
 00098,-0.00000399,0.00000261,0.00000099,-0.00000176,0.00000005,0.00000
 055,-0.00000485,0.00000225,0.00000198,-0.00000260,0.00000175,0.0000031
 5\\\@


 SACRED COWS MAKE GREAT HAMBURGERS -- ROBERT REISNER
 Job cpu time:       0 days  6 hours 19 minutes 39.0 seconds.
 File lengths (MBytes):  RWF=    953 Int=      0 D2E=      0 Chk=     25 Scr=      1
 Normal termination of Gaussian 09 at Tue Feb 19 15:09:28 2019.
WARNING: pbs_rusage is deprecated and values produced may not be accurate


=============================================================================
                                     Resource usage:
                                       CPU time:              29:25:39
   JobId:    5879267.r-man2            Elapsed time:          04:14:57
   Project:             q95            Requested time:        42:00:00
   Service Units:     33.99 
                                       Max physical memory:     1560MB
                                       Max virtual memory:      2867MB
                                       Requested memory:           0MB

                                       Number of cpus:               8

                                       Max jobfs disk use:       0.9GB
                                       Requested jobfs:         20.0GB
=============================================================================

