 Entering Gaussian System, Link 0=/apps/gaussian/g09e01/g09/g09
 AtFile(1): /home/507/hio507/Basis/6-31pGd.gbs
 Initial command:
 /apps/gaussian/g09e01/g09/l1.exe "/jobfs/local/6207856.r-man2/Gau-46263.inp" -scrdir="/jobfs/local/6207856.r-man2/"
 Entering Link 1 = /apps/gaussian/g09e01/g09/l1.exe PID=     46264.
  
 Copyright (c) 1988,1990,1992,1993,1995,1998,2003,2009,2015,
            Gaussian, Inc.  All Rights Reserved.
  
 This is part of the Gaussian(R) 09 program.  It is based on
 the Gaussian(R) 03 system (copyright 2003, Gaussian, Inc.),
 the Gaussian(R) 98 system (copyright 1998, Gaussian, Inc.),
 the Gaussian(R) 94 system (copyright 1995, Gaussian, Inc.),
 the Gaussian 92(TM) system (copyright 1992, Gaussian, Inc.),
 the Gaussian 90(TM) system (copyright 1990, Gaussian, Inc.),
 the Gaussian 88(TM) system (copyright 1988, Gaussian, Inc.),
 the Gaussian 86(TM) system (copyright 1986, Carnegie Mellon
 University), and the Gaussian 82(TM) system (copyright 1983,
 Carnegie Mellon University). Gaussian is a federally registered
 trademark of Gaussian, Inc.
  
 This software contains proprietary and confidential information,
 including trade secrets, belonging to Gaussian, Inc.
  
 This software is provided under written license and may be
 used, copied, transmitted, or stored only in accord with that
 written license.
  
 The following legend is applicable only to US Government
 contracts under FAR:
  
                    RESTRICTED RIGHTS LEGEND
  
 Use, reproduction and disclosure by the US Government is
 subject to restrictions as set forth in subparagraphs (a)
 and (c) of the Commercial Computer Software - Restricted
 Rights clause in FAR 52.227-19.
  
 Gaussian, Inc.
 340 Quinnipiac St., Bldg. 40, Wallingford CT 06492
  
  
 ---------------------------------------------------------------
 Warning -- This program may not be used in any manner that
 competes with the business of Gaussian, Inc. or will provide
 assistance to any competitor of Gaussian, Inc.  The licensee
 of this program is prohibited from giving any competitor of
 Gaussian, Inc. access to this program.  By using this program,
 the user acknowledges that Gaussian, Inc. is engaged in the
 business of creating and licensing software in the field of
 computational chemistry and represents and warrants to the
 licensee that it is not a competitor of Gaussian, Inc. and that
 it will not use this program in any manner prohibited above.
 ---------------------------------------------------------------
  

 Cite this work as:
 Gaussian 09, Revision E.01,
 M. J. Frisch, G. W. Trucks, H. B. Schlegel, G. E. Scuseria, 
 M. A. Robb, J. R. Cheeseman, G. Scalmani, V. Barone, B. Mennucci, 
 G. A. Petersson, H. Nakatsuji, M. Caricato, X. Li, H. P. Hratchian, 
 A. F. Izmaylov, J. Bloino, G. Zheng, J. L. Sonnenberg, M. Hada, 
 M. Ehara, K. Toyota, R. Fukuda, J. Hasegawa, M. Ishida, T. Nakajima, 
 Y. Honda, O. Kitao, H. Nakai, T. Vreven, J. A. Montgomery, Jr., 
 J. E. Peralta, F. Ogliaro, M. Bearpark, J. J. Heyd, E. Brothers, 
 K. N. Kudin, V. N. Staroverov, T. Keith, R. Kobayashi, J. Normand, 
 K. Raghavachari, A. Rendell, J. C. Burant, S. S. Iyengar, J. Tomasi, 
 M. Cossi, N. Rega, J. M. Millam, M. Klene, J. E. Knox, J. B. Cross, 
 V. Bakken, C. Adamo, J. Jaramillo, R. Gomperts, R. E. Stratmann, 
 O. Yazyev, A. J. Austin, R. Cammi, C. Pomelli, J. W. Ochterski, 
 R. L. Martin, K. Morokuma, V. G. Zakrzewski, G. A. Voth, 
 P. Salvador, J. J. Dannenberg, S. Dapprich, A. D. Daniels, 
 O. Farkas, J. B. Foresman, J. V. Ortiz, J. Cioslowski, 
 and D. J. Fox, Gaussian, Inc., Wallingford CT, 2013.
 
 ******************************************
 Gaussian 09:  ES64L-G09RevE.01 30-Nov-2015
                27-Feb-2019 
 ******************************************
 %chk=3TFM4Chloro_a1.M062X_6-31pGd_opt.chk
 %mem=196608000
 %nproc=4
 Will use up to    4 processors via shared memory.
 ----------------------------------------------------------------------
 # M062X/Gen 6D SCF=Tight INT(grid=ultrafine) OPT=CalcFC IOP(2/17=4) ma
 xdisk=2147483648
 ----------------------------------------------------------------------
 1/10=4,14=-1,18=20,19=15,26=4,38=1/1,3;
 2/9=110,12=2,17=4,18=5,40=1/2;
 3/5=7,8=2,11=2,16=1,25=1,30=1,71=2,74=-55,75=-5,140=1/1,2,3;
 4//1;
 5/5=2,32=2,38=5/2;
 8/6=4,10=90,11=11/1;
 11/6=1,8=1,9=11,15=111,16=1/1,2,10;
 10/6=1,13=1/2;
 6/7=2,8=2,9=2,10=2,28=1/1;
 7/10=1,18=20,25=1/1,2,3,16;
 1/10=4,14=-1,18=20,19=15,26=4/3(2);
 2/9=110,17=4/2;
 99//99;
 2/9=110,17=4/2;
 3/5=7,6=1,8=2,11=2,16=1,25=1,30=1,71=1,74=-55,75=-5,82=7/1,2,3;
 4/5=5,16=3,69=1/1;
 5/5=2,32=2,38=5/2;
 7//1,2,3,16;
 1/14=-1,18=20,19=15,26=4/3(-5);
 2/9=110,17=4/2;
 6/7=2,8=2,9=2,10=2,19=2,28=1/1;
 99/9=1/99;
 --------------------------------
 3TFM4Chloro_a1.M062X_6-31pGd_opt
 --------------------------------
 Symbolic Z-matrix:
 Charge = -1 Multiplicity = 1
 C                    -1.97352   2.15591  -0.08665 
 C                    -0.61057   1.47905   0.02572 
 C                     0.52777   2.49435  -0.12759 
 N                     1.82295   1.84516  -0.01995 
 C                     2.98899   2.5429   -0.1301 
 O                     2.94608   3.74708  -0.3245 
 N                     4.18252   1.88041  -0.01988 
 C                     5.51424   2.42235  -0.10987 
 C                     5.81465   3.78466  -0.35717 
 C                     6.58885   1.53178   0.05767 
 C                     7.90925   1.96903  -0.01485 
 C                     8.19863   3.31099  -0.2583 
 C                     7.14968   4.23819  -0.43342 
 H                    -2.77633   1.39719   0.02635 
 H                    -2.08202   2.64337  -1.07898 
 H                    -2.09175   2.92044   0.71058 
 H                    -0.5258    0.70533  -0.76829 
 H                    -0.53467   0.98327   1.01798 
 H                     0.43864   3.26762   0.66725 
 H                     0.44619   2.98614  -1.12213 
 H                     1.86066   0.82654   0.14315 
 H                     5.04149   4.51331  -0.49616 
 H                     6.40354   0.48178   0.24796 
 H                     8.71312   1.25604   0.1194 
 Cl                    9.89316   3.78785  -0.33698 
 C                     7.45655   5.6986   -0.70029 
 F                     6.30689   6.45616  -0.84519 
 F                     8.19576   5.81192  -1.86392 
 F                     8.18515   6.21972   0.35364 
 

 GradGradGradGradGradGradGradGradGradGradGradGradGradGradGradGradGradGrad
 Berny optimization.
 Initialization pass.
                           ----------------------------
                           !    Initial Parameters    !
                           ! (Angstroms and Degrees)  !
 --------------------------                            --------------------------
 ! Name  Definition              Value          Derivative Info.                !
 --------------------------------------------------------------------------------
 ! R1    R(1,2)                  1.5259         calculate D2E/DX2 analytically  !
 ! R2    R(1,14)                 1.1104         calculate D2E/DX2 analytically  !
 ! R3    R(1,15)                 1.1109         calculate D2E/DX2 analytically  !
 ! R4    R(1,16)                 1.1109         calculate D2E/DX2 analytically  !
 ! R5    R(2,3)                  1.533          calculate D2E/DX2 analytically  !
 ! R6    R(2,17)                 1.1119         calculate D2E/DX2 analytically  !
 ! R7    R(2,18)                 1.1118         calculate D2E/DX2 analytically  !
 ! R8    R(3,4)                  1.4528         calculate D2E/DX2 analytically  !
 ! R9    R(3,19)                 1.1125         calculate D2E/DX2 analytically  !
 ! R10   R(3,20)                 1.1125         calculate D2E/DX2 analytically  !
 ! R11   R(4,5)                  1.3633         calculate D2E/DX2 analytically  !
 ! R12   R(4,21)                 1.0323         calculate D2E/DX2 analytically  !
 ! R13   R(5,6)                  1.2205         calculate D2E/DX2 analytically  !
 ! R14   R(5,7)                  1.3695         calculate D2E/DX2 analytically  !
 ! R15   R(7,8)                  1.4406         calculate D2E/DX2 analytically  !
 ! R16   R(8,9)                  1.4168         calculate D2E/DX2 analytically  !
 ! R17   R(8,10)                 1.4057         calculate D2E/DX2 analytically  !
 ! R18   R(9,13)                 1.412          calculate D2E/DX2 analytically  !
 ! R19   R(9,22)                 1.0715         calculate D2E/DX2 analytically  !
 ! R20   R(10,11)                1.3928         calculate D2E/DX2 analytically  !
 ! R21   R(10,23)                1.0831         calculate D2E/DX2 analytically  !
 ! R22   R(11,12)                1.3942         calculate D2E/DX2 analytically  !
 ! R23   R(11,24)                1.0829         calculate D2E/DX2 analytically  !
 ! R24   R(12,13)                1.4109         calculate D2E/DX2 analytically  !
 ! R25   R(12,25)                1.7621         calculate D2E/DX2 analytically  !
 ! R26   R(13,26)                1.516          calculate D2E/DX2 analytically  !
 ! R27   R(26,27)                1.3844         calculate D2E/DX2 analytically  !
 ! R28   R(26,28)                1.3832         calculate D2E/DX2 analytically  !
 ! R29   R(26,29)                1.3832         calculate D2E/DX2 analytically  !
 ! A1    A(2,1,14)             109.5849         calculate D2E/DX2 analytically  !
 ! A2    A(2,1,15)             110.3442         calculate D2E/DX2 analytically  !
 ! A3    A(2,1,16)             110.334          calculate D2E/DX2 analytically  !
 ! A4    A(14,1,15)            108.6702         calculate D2E/DX2 analytically  !
 ! A5    A(14,1,16)            108.6797         calculate D2E/DX2 analytically  !
 ! A6    A(15,1,16)            109.1882         calculate D2E/DX2 analytically  !
 ! A7    A(1,2,3)              111.2296         calculate D2E/DX2 analytically  !
 ! A8    A(1,2,17)             108.9159         calculate D2E/DX2 analytically  !
 ! A9    A(1,2,18)             108.9352         calculate D2E/DX2 analytically  !
 ! A10   A(3,2,17)             109.441          calculate D2E/DX2 analytically  !
 ! A11   A(3,2,18)             109.5048         calculate D2E/DX2 analytically  !
 ! A12   A(17,2,18)            108.773          calculate D2E/DX2 analytically  !
 ! A13   A(2,3,4)              111.0166         calculate D2E/DX2 analytically  !
 ! A14   A(2,3,19)             109.2322         calculate D2E/DX2 analytically  !
 ! A15   A(2,3,20)             109.1307         calculate D2E/DX2 analytically  !
 ! A16   A(4,3,19)             109.2138         calculate D2E/DX2 analytically  !
 ! A17   A(4,3,20)             109.2177         calculate D2E/DX2 analytically  !
 ! A18   A(19,3,20)            109.0003         calculate D2E/DX2 analytically  !
 ! A19   A(3,4,5)              121.8591         calculate D2E/DX2 analytically  !
 ! A20   A(3,4,21)             119.0272         calculate D2E/DX2 analytically  !
 ! A21   A(5,4,21)             119.1137         calculate D2E/DX2 analytically  !
 ! A22   A(4,5,6)              119.1923         calculate D2E/DX2 analytically  !
 ! A23   A(4,5,7)              119.427          calculate D2E/DX2 analytically  !
 ! A24   A(6,5,7)              121.3807         calculate D2E/DX2 analytically  !
 ! A25   A(5,7,8)              128.2165         calculate D2E/DX2 analytically  !
 ! A26   A(7,8,9)              124.6559         calculate D2E/DX2 analytically  !
 ! A27   A(7,8,10)             117.4464         calculate D2E/DX2 analytically  !
 ! A28   A(9,8,10)             117.8976         calculate D2E/DX2 analytically  !
 ! A29   A(8,9,13)             121.2478         calculate D2E/DX2 analytically  !
 ! A30   A(8,9,22)             121.5702         calculate D2E/DX2 analytically  !
 ! A31   A(13,9,22)            117.1819         calculate D2E/DX2 analytically  !
 ! A32   A(8,10,11)            121.3076         calculate D2E/DX2 analytically  !
 ! A33   A(8,10,23)            120.2876         calculate D2E/DX2 analytically  !
 ! A34   A(11,10,23)           118.4048         calculate D2E/DX2 analytically  !
 ! A35   A(10,11,12)           120.5323         calculate D2E/DX2 analytically  !
 ! A36   A(10,11,24)           119.3805         calculate D2E/DX2 analytically  !
 ! A37   A(12,11,24)           120.0872         calculate D2E/DX2 analytically  !
 ! A38   A(11,12,13)           119.993          calculate D2E/DX2 analytically  !
 ! A39   A(11,12,25)           117.896          calculate D2E/DX2 analytically  !
 ! A40   A(13,12,25)           122.1111         calculate D2E/DX2 analytically  !
 ! A41   A(9,13,12)            119.0217         calculate D2E/DX2 analytically  !
 ! A42   A(9,13,26)            120.6846         calculate D2E/DX2 analytically  !
 ! A43   A(12,13,26)           120.2937         calculate D2E/DX2 analytically  !
 ! A44   A(13,26,27)           112.1773         calculate D2E/DX2 analytically  !
 ! A45   A(13,26,28)           109.5841         calculate D2E/DX2 analytically  !
 ! A46   A(13,26,29)           109.5992         calculate D2E/DX2 analytically  !
 ! A47   A(27,26,28)           108.1142         calculate D2E/DX2 analytically  !
 ! A48   A(27,26,29)           108.1209         calculate D2E/DX2 analytically  !
 ! A49   A(28,26,29)           109.1854         calculate D2E/DX2 analytically  !
 ! D1    D(14,1,2,3)           179.9028         calculate D2E/DX2 analytically  !
 ! D2    D(14,1,2,17)           59.2007         calculate D2E/DX2 analytically  !
 ! D3    D(14,1,2,18)          -59.303          calculate D2E/DX2 analytically  !
 ! D4    D(15,1,2,3)            60.2789         calculate D2E/DX2 analytically  !
 ! D5    D(15,1,2,17)          -60.4232         calculate D2E/DX2 analytically  !
 ! D6    D(15,1,2,18)         -178.9269         calculate D2E/DX2 analytically  !
 ! D7    D(16,1,2,3)           -60.4678         calculate D2E/DX2 analytically  !
 ! D8    D(16,1,2,17)          178.8301         calculate D2E/DX2 analytically  !
 ! D9    D(16,1,2,18)           60.3263         calculate D2E/DX2 analytically  !
 ! D10   D(1,2,3,4)           -179.9967         calculate D2E/DX2 analytically  !
 ! D11   D(1,2,3,19)            59.5113         calculate D2E/DX2 analytically  !
 ! D12   D(1,2,3,20)           -59.5659         calculate D2E/DX2 analytically  !
 ! D13   D(17,2,3,4)           -59.604          calculate D2E/DX2 analytically  !
 ! D14   D(17,2,3,19)          179.904          calculate D2E/DX2 analytically  !
 ! D15   D(17,2,3,20)           60.8268         calculate D2E/DX2 analytically  !
 ! D16   D(18,2,3,4)            59.5446         calculate D2E/DX2 analytically  !
 ! D17   D(18,2,3,19)          -60.9474         calculate D2E/DX2 analytically  !
 ! D18   D(18,2,3,20)          179.9754         calculate D2E/DX2 analytically  !
 ! D19   D(2,3,4,5)            179.6766         calculate D2E/DX2 analytically  !
 ! D20   D(2,3,4,21)            -0.231          calculate D2E/DX2 analytically  !
 ! D21   D(19,3,4,5)           -59.8205         calculate D2E/DX2 analytically  !
 ! D22   D(19,3,4,21)          120.2719         calculate D2E/DX2 analytically  !
 ! D23   D(20,3,4,5)            59.2973         calculate D2E/DX2 analytically  !
 ! D24   D(20,3,4,21)         -120.6103         calculate D2E/DX2 analytically  !
 ! D25   D(3,4,5,6)              0.008          calculate D2E/DX2 analytically  !
 ! D26   D(3,4,5,7)            179.9691         calculate D2E/DX2 analytically  !
 ! D27   D(21,4,5,6)           179.9155         calculate D2E/DX2 analytically  !
 ! D28   D(21,4,5,7)            -0.1234         calculate D2E/DX2 analytically  !
 ! D29   D(4,5,7,8)            179.7262         calculate D2E/DX2 analytically  !
 ! D30   D(6,5,7,8)             -0.3136         calculate D2E/DX2 analytically  !
 ! D31   D(5,7,8,9)             -1.0116         calculate D2E/DX2 analytically  !
 ! D32   D(5,7,8,10)           179.1204         calculate D2E/DX2 analytically  !
 ! D33   D(7,8,9,13)          -179.8848         calculate D2E/DX2 analytically  !
 ! D34   D(7,8,9,22)            -0.0158         calculate D2E/DX2 analytically  !
 ! D35   D(10,8,9,13)           -0.0173         calculate D2E/DX2 analytically  !
 ! D36   D(10,8,9,22)          179.8517         calculate D2E/DX2 analytically  !
 ! D37   D(7,8,10,11)          179.9339         calculate D2E/DX2 analytically  !
 ! D38   D(7,8,10,23)           -0.0908         calculate D2E/DX2 analytically  !
 ! D39   D(9,8,10,11)            0.0567         calculate D2E/DX2 analytically  !
 ! D40   D(9,8,10,23)         -179.9681         calculate D2E/DX2 analytically  !
 ! D41   D(8,9,13,12)           -0.029          calculate D2E/DX2 analytically  !
 ! D42   D(8,9,13,26)          179.9271         calculate D2E/DX2 analytically  !
 ! D43   D(22,9,13,12)        -179.9036         calculate D2E/DX2 analytically  !
 ! D44   D(22,9,13,26)           0.0525         calculate D2E/DX2 analytically  !
 ! D45   D(8,10,11,12)          -0.0493         calculate D2E/DX2 analytically  !
 ! D46   D(8,10,11,24)         179.9752         calculate D2E/DX2 analytically  !
 ! D47   D(23,10,11,12)        179.975          calculate D2E/DX2 analytically  !
 ! D48   D(23,10,11,24)         -0.0005         calculate D2E/DX2 analytically  !
 ! D49   D(10,11,12,13)          0.0008         calculate D2E/DX2 analytically  !
 ! D50   D(10,11,12,25)       -179.9637         calculate D2E/DX2 analytically  !
 ! D51   D(24,11,12,13)        179.9761         calculate D2E/DX2 analytically  !
 ! D52   D(24,11,12,25)          0.0116         calculate D2E/DX2 analytically  !
 ! D53   D(11,12,13,9)           0.0375         calculate D2E/DX2 analytically  !
 ! D54   D(11,12,13,26)       -179.9187         calculate D2E/DX2 analytically  !
 ! D55   D(25,12,13,9)        -179.9996         calculate D2E/DX2 analytically  !
 ! D56   D(25,12,13,26)          0.0442         calculate D2E/DX2 analytically  !
 ! D57   D(9,13,26,27)           0.0233         calculate D2E/DX2 analytically  !
 ! D58   D(9,13,26,28)        -120.0687         calculate D2E/DX2 analytically  !
 ! D59   D(9,13,26,29)         120.1339         calculate D2E/DX2 analytically  !
 ! D60   D(12,13,26,27)        179.9788         calculate D2E/DX2 analytically  !
 ! D61   D(12,13,26,28)         59.8868         calculate D2E/DX2 analytically  !
 ! D62   D(12,13,26,29)        -59.9106         calculate D2E/DX2 analytically  !
 --------------------------------------------------------------------------------
 Trust Radius=3.00D-01 FncErr=1.00D-07 GrdErr=1.00D-06
 Number of steps in this run=    150 maximum allowed number of steps=    174.
 GradGradGradGradGradGradGradGradGradGradGradGradGradGradGradGradGradGrad

                          Input orientation:                          
 ---------------------------------------------------------------------
 Center     Atomic      Atomic             Coordinates (Angstroms)
 Number     Number       Type             X           Y           Z
 ---------------------------------------------------------------------
      1          6           0       -1.973520    2.155910   -0.086650
      2          6           0       -0.610570    1.479050    0.025720
      3          6           0        0.527770    2.494350   -0.127590
      4          7           0        1.822950    1.845160   -0.019950
      5          6           0        2.988990    2.542900   -0.130100
      6          8           0        2.946080    3.747080   -0.324500
      7          7           0        4.182520    1.880410   -0.019880
      8          6           0        5.514240    2.422350   -0.109870
      9          6           0        5.814650    3.784660   -0.357170
     10          6           0        6.588850    1.531780    0.057670
     11          6           0        7.909250    1.969030   -0.014850
     12          6           0        8.198630    3.310990   -0.258300
     13          6           0        7.149680    4.238190   -0.433420
     14          1           0       -2.776330    1.397190    0.026350
     15          1           0       -2.082020    2.643370   -1.078980
     16          1           0       -2.091750    2.920440    0.710580
     17          1           0       -0.525800    0.705330   -0.768290
     18          1           0       -0.534670    0.983270    1.017980
     19          1           0        0.438640    3.267620    0.667250
     20          1           0        0.446190    2.986140   -1.122130
     21          1           0        1.860660    0.826540    0.143150
     22          1           0        5.041490    4.513310   -0.496160
     23          1           0        6.403540    0.481780    0.247960
     24          1           0        8.713120    1.256040    0.119400
     25         17           0        9.893160    3.787850   -0.336980
     26          6           0        7.456550    5.698600   -0.700290
     27          9           0        6.306890    6.456160   -0.845190
     28          9           0        8.195760    5.811920   -1.863920
     29          9           0        8.185150    6.219720    0.353640
 ---------------------------------------------------------------------
                    Distance matrix (angstroms):
                    1          2          3          4          5
     1  C    0.000000
     2  C    1.525909   0.000000
     3  C    2.524415   1.533022   0.000000
     4  N    3.809751   2.461329   1.452765   0.000000
     5  C    4.977766   3.756713   2.461700   1.363313   0.000000
     6  O    5.175989   4.232774   2.730628   2.229680   1.220525
     7  N    6.162563   4.810081   3.707522   2.359833   1.369509
     8  C    7.492535   6.198508   4.987021   3.737226   2.528207
     9  C    7.961256   6.837097   5.446899   4.450735   3.094816
    10  C    8.586300   7.199684   6.139833   4.776823   3.743877
    11  C    9.884798   8.533994   7.401008   6.087563   4.954954
    12  C   10.238960   9.002148   7.715315   6.546355   5.267518
    13  C    9.364236   8.248948   6.854502   5.854195   4.503038
    14  H    1.110373   2.167307   3.484901   4.621277   5.880140
    15  H    1.110904   2.177422   2.781790   4.124012   5.160001
    16  H    1.110883   2.177276   2.783158   4.124897   5.163642
    17  H    2.159794   1.111882   2.172809   2.715852   4.017175
    18  H    2.159996   1.111818   2.173585   2.716344   4.020785
    19  H    2.760938   2.170573   1.112502   2.100464   2.768623
    20  H    2.759800   2.169244   1.112485   2.100501   2.765216
    21  H    4.064599   2.558620   2.152089   1.032284   2.072121
    22  H    7.411842   6.436216   4.958398   4.207707   2.868671
    23  H    8.549258   7.088136   6.222230   4.786688   4.006282
    24  H   10.726439   9.326827   8.282172   6.916713   5.872301
    25  Cl  11.980984  10.760597   9.456612   8.306795   7.018566
    26  C   10.092246   9.132914   7.655272   6.859250   5.499332
    27  F    9.361235   8.566292   7.043374   6.484448   5.180098
    28  F   10.951683   9.994796   8.533416   7.729691   6.387729
    29  F   10.950205   9.997308   8.529093   7.730067   6.383815
                    6          7          8          9         10
     6  O    0.000000
     7  N    2.259654   0.000000
     8  C    2.897658   1.440582   0.000000
     9  C    2.869002   2.530569   1.416789   0.000000
    10  C    4.280582   2.432690   1.405692   2.418046   0.000000
    11  C    5.281136   3.727787   2.439385   2.793035   1.392804
    12  C    5.271038   4.269958   2.831548   2.432591   2.420086
    13  C    4.233593   3.812372   2.465081   1.412023   2.807197
    14  H    6.196052   6.975760   8.354823   8.924799   9.366199
    15  H    5.202807   6.399083   7.661018   8.011301   8.815418
    16  H    5.209074   6.401695   7.666310   8.024844   8.815185
    17  H    4.637148   4.910113   6.313775   7.060637   7.209957
    18  H    4.642900   4.912626   6.319202   7.074792   7.208855
    19  H    2.738742   4.051313   5.203856   5.497113   6.419487
    20  H    2.732159   4.049414   5.198813   5.481164   6.421788
    21  H    3.150617   2.555045   3.994906   4.963349   4.781260
    22  H    2.237704   2.810131   2.178262   1.071459   3.404493
    23  H    4.789982   2.638339   2.164419   3.409104   1.083074
    24  H    6.297704   4.575541   3.412576   3.875844   2.142981
    25  Cl   6.947211   6.029120   4.592506   4.078561   4.020456
    26  C    4.928893   5.075510   3.854216   2.544943   4.323170
    27  F    4.348020   5.111905   4.176196   2.759959   5.014397
    28  F    5.847437   5.912981   4.664378   3.471277   4.959261
    29  F    5.832810   5.915249   4.665685   3.471893   4.961104
                   11         12         13         14         15
    11  C    0.000000
    12  C    1.394226   0.000000
    13  C    2.429246   1.410909   0.000000
    14  H   10.700949  11.144209  10.334812   0.000000
    15  H   10.070381  10.334941   9.390659   1.804657   0.000000
    16  H   10.072310  10.343267   9.404745   1.804747   1.810908
    17  H    8.562399   9.119497   8.456136   2.484956   2.504865
    18  H    8.563775   9.127853   8.470555   2.485900   3.089897
    19  H    7.613252   7.815112   6.869610   3.774294   3.129334
    20  H    7.613005   7.807180   6.854103   3.772056   2.551705
    21  H    6.157572   6.819349   6.320247   4.673431   4.509900
    22  H    3.863815   3.386692   2.126991   8.432172   7.387879
    23  H    2.132638   3.388669   3.889938   9.228060   8.856521
    24  H    1.082860   2.151785   3.412209  11.490694  10.949696
    25  Cl   2.710678   1.762106   2.781868  12.898187  12.052607
    26  C    3.818960   2.539039   1.515977  11.123937  10.023081
    27  F    4.836461   3.716882   2.408161  10.433487   9.217691
    28  F    4.274219   2.971982   2.370072  11.977050  10.783719
    29  F    4.275543   2.972434   2.370258  11.979898  10.966196
                   16         17         18         19         20
    16  H    0.000000
    17  H    3.089655   0.000000
    18  H    2.504320   1.807786   0.000000
    19  H    2.554464   3.091318   2.507708   0.000000
    20  H    3.131179   2.504408   3.090897   1.811400   0.000000
    21  H    4.508652   2.557461   2.554897   2.873272   2.874984
    22  H    7.407872   6.750517   6.771068   4.908309   4.882711
    23  H    8.850482   7.007032   6.998799   6.596722   6.605981
    24  H   10.948285   9.297791   9.295347   8.533089   8.536789
    25  Cl  12.061834  10.873945  10.883071   9.521926   9.513382
    26  C   10.043842   9.415693   9.436439   7.551880   7.528648
    27  F    9.244398   8.931048   8.957169   6.847673   6.816564
    28  F   10.991887  10.165789  10.384682   8.547116   8.281976
    29  F   10.799413  10.370529  10.192989   8.295882   8.516187
                   21         22         23         24         25
    21  H    0.000000
    22  H    4.911076   0.000000
    23  H    4.557149   4.319969   0.000000
    24  H    6.865948   4.946675   2.439296   0.000000
    25  Cl   8.574435   4.908190   4.842489   2.830343   0.000000
    26  C    7.467419   2.697980   5.405850   4.689051   3.117696
    27  F    7.241436   2.344723   6.074334   5.810475   4.498832
    28  F    8.307577   3.675129   6.006870   4.995724   3.051159
    29  F    8.314437   3.676492   6.009098   4.997173   3.050942
                   26         27         28         29
    26  C    0.000000
    27  F    1.384417   0.000000
    28  F    1.383224   2.240689   0.000000
    29  F    1.383182   2.240749   2.254770   0.000000
 Stoichiometry    C11H11ClF3N2O(1-)
 Framework group  C1[X(C11H11ClF3N2O)]
 Deg. of freedom    81
 Full point group                 C1      NOp   1
 Largest Abelian subgroup         C1      NOp   1
 Largest concise Abelian subgroup C1      NOp   1
                         Standard orientation:                         
 ---------------------------------------------------------------------
 Center     Atomic      Atomic             Coordinates (Angstroms)
 Number     Number       Type             X           Y           Z
 ---------------------------------------------------------------------
      1          6           0        7.303967    0.773926    0.001953
      2          6           0        6.194255   -0.273316    0.016837
      3          6           0        4.809798    0.384502   -0.009857
      4          7           0        3.756993   -0.616458    0.004513
      5          6           0        2.437623   -0.273334   -0.007836
      6          8           0        2.129812    0.907496   -0.031783
      7          7           0        1.486095   -1.258198    0.006031
      8          6           0        0.052875   -1.112799    0.002227
      9          6           0       -0.631041    0.127987    0.003233
     10          6           0       -0.717632   -2.288506    0.000036
     11          6           0       -2.109642   -2.241560   -0.002296
     12          6           0       -2.777065   -1.017464   -0.001481
     13          6           0       -2.041841    0.186736    0.001712
     14          1           0        8.292622    0.268929    0.023603
     15          1           0        7.222883    1.435227    0.890894
     16          1           0        7.239861    1.391227   -0.919400
     17          1           0        6.293169   -0.890261    0.936552
     18          1           0        6.308919   -0.933121   -0.870658
     19          1           0        4.715229    1.002128   -0.930322
     20          1           0        4.701592    1.042564    0.880575
     21          1           0        4.015954   -1.615499    0.026096
     22          1           0       -0.102353    1.059919    0.007261
     23          1           0       -0.234818   -3.258011   -0.000273
     24          1           0       -2.672401   -3.166700   -0.004354
     25         17           0       -4.539037   -1.039140   -0.003576
     26          6           0       -2.760551    1.521514    0.004473
     27          9           0       -1.879534    2.589413    0.007894
     28          9           0       -3.556614    1.617128    1.131615
     29          9           0       -3.555143    1.622957   -1.123147
 ---------------------------------------------------------------------
 Rotational constants (GHZ):      0.8710174      0.1372839      0.1216333
 General basis read from cards:  (6D, 7F)
 There are   368 symmetry adapted cartesian basis functions of A   symmetry.
 There are   368 symmetry adapted basis functions of A   symmetry.
   368 basis functions,   644 primitive gaussians,   368 cartesian basis functions
    72 alpha electrons       72 beta electrons
       nuclear repulsion energy      1406.6317588027 Hartrees.
 NAtoms=   29 NActive=   29 NUniq=   29 SFac= 1.00D+00 NAtFMM=   60 NAOKFM=F Big=F
 Integral buffers will be    131072 words long.
 Raffenetti 2 integral format.
 Two-electron integral symmetry is turned on.
 One-electron integrals computed using PRISM.
 NBasis=   368 RedAO= T EigKep=  1.60D-06  NBF=   368
 NBsUse=   367 1.00D-06 EigRej=  3.60D-07 NBFU=   367
 ExpMin= 4.38D-02 ExpMax= 2.52D+04 ExpMxC= 3.78D+03 IAcc=3 IRadAn=         5 AccDes= 0.00D+00
 Harris functional with IExCor= 1009 and IRadAn=       5 diagonalized for initial guess.
 HarFok:  IExCor= 1009 AccDes= 0.00D+00 IRadAn=         5 IDoV= 1 UseB2=F ITyADJ=14
 ICtDFT=  3500011 ScaDFX=  1.000000  1.000000  1.000000  1.000000
 FoFCou: FMM=F IPFlag=           0 FMFlag=      100000 FMFlg1=           0
         NFxFlg=           0 DoJE=T BraDBF=F KetDBF=T FulRan=T
         wScrn=  0.000000 ICntrl=     500 IOpCl=  0 I1Cent=   200000004 NGrid=           0
         NMat0=    1 NMatS0=      1 NMatT0=    0 NMatD0=    1 NMtDS0=    0 NMtDT0=    0
 Petite list used in FoFCou.
 Requested convergence on RMS density matrix=1.00D-08 within 128 cycles.
 Requested convergence on MAX density matrix=1.00D-06.
 Requested convergence on             energy=1.00D-06.
 No special actions if energy rises.
 SCF Done:  E(RM062X) =  -1369.96509368     A.U. after   17 cycles
            NFock= 17  Conv=0.60D-08     -V/T= 2.0067
 DoSCS=F DFT=T ScalE2(SS,OS)=  1.000000  1.000000
 Range of M.O.s used for correlation:     1   367
 NBasis=   368 NAE=    72 NBE=    72 NFC=     0 NFV=     0
 NROrb=    367 NOA=    72 NOB=    72 NVA=   295 NVB=   295

 **** Warning!!: The largest alpha MO coefficient is  0.14688498D+03

 Symmetrizing basis deriv contribution to polar:
 IMax=3 JMax=2 DiffMx= 0.00D+00
 G2DrvN: will do    30 centers at a time, making    1 passes.
 Calling FoFCou, ICntrl=  3107 FMM=F I1Cent=   0 AccDes= 0.00D+00.
 End of G2Drv F.D. properties file   721 does not exist.
 End of G2Drv F.D. properties file   722 does not exist.
 End of G2Drv F.D. properties file   788 does not exist.
          IDoAtm=11111111111111111111111111111
          Differentiating once with respect to nuclear coordinates.
          There are    90 degrees of freedom in the 1st order CPHF.  IDoFFX=6 NUNeed=     0.
     84 vectors produced by pass  0 Test12= 2.36D-14 1.11D-09 XBig12= 2.76D-01 9.40D-02.
 AX will form    84 AO Fock derivatives at one time.
     84 vectors produced by pass  1 Test12= 2.36D-14 1.11D-09 XBig12= 1.56D-02 2.02D-02.
     84 vectors produced by pass  2 Test12= 2.36D-14 1.11D-09 XBig12= 5.06D-04 4.23D-03.
     84 vectors produced by pass  3 Test12= 2.36D-14 1.11D-09 XBig12= 5.95D-06 3.67D-04.
     84 vectors produced by pass  4 Test12= 2.36D-14 1.11D-09 XBig12= 5.49D-08 2.59D-05.
     84 vectors produced by pass  5 Test12= 2.36D-14 1.11D-09 XBig12= 3.07D-10 2.99D-06.
     67 vectors produced by pass  6 Test12= 2.36D-14 1.11D-09 XBig12= 1.40D-12 1.51D-07.
     34 vectors produced by pass  7 Test12= 2.36D-14 1.11D-09 XBig12= 6.27D-15 1.01D-08.
     20 vectors produced by pass  8 Test12= 2.36D-14 1.11D-09 XBig12= 1.06D-15 4.95D-09.
     20 vectors produced by pass  9 Test12= 2.36D-14 1.11D-09 XBig12= 5.97D-15 9.44D-09.
     20 vectors produced by pass 10 Test12= 2.36D-14 1.11D-09 XBig12= 7.56D-15 9.58D-09.
     20 vectors produced by pass 11 Test12= 2.36D-14 1.11D-09 XBig12= 4.37D-15 5.54D-09.
     13 vectors produced by pass 12 Test12= 2.36D-14 1.11D-09 XBig12= 1.94D-15 5.54D-09.
     13 vectors produced by pass 13 Test12= 2.36D-14 1.11D-09 XBig12= 6.67D-15 9.20D-09.
     13 vectors produced by pass 14 Test12= 2.36D-14 1.11D-09 XBig12= 2.92D-15 5.16D-09.
     12 vectors produced by pass 15 Test12= 2.36D-14 1.11D-09 XBig12= 4.35D-15 5.46D-09.
     12 vectors produced by pass 16 Test12= 2.36D-14 1.11D-09 XBig12= 5.86D-15 5.63D-09.
     12 vectors produced by pass 17 Test12= 2.36D-14 1.11D-09 XBig12= 4.67D-15 6.72D-09.
      9 vectors produced by pass 18 Test12= 2.36D-14 1.11D-09 XBig12= 2.12D-15 3.93D-09.
      9 vectors produced by pass 19 Test12= 2.36D-14 1.11D-09 XBig12= 1.48D-14 1.14D-08.
      9 vectors produced by pass 20 Test12= 2.36D-14 1.11D-09 XBig12= 2.92D-15 4.03D-09.
      9 vectors produced by pass 21 Test12= 2.36D-14 1.11D-09 XBig12= 3.67D-15 5.97D-09.
      9 vectors produced by pass 22 Test12= 2.36D-14 1.11D-09 XBig12= 6.31D-15 6.96D-09.
      9 vectors produced by pass 23 Test12= 2.36D-14 1.11D-09 XBig12= 3.27D-15 6.61D-09.
      9 vectors produced by pass 24 Test12= 2.36D-14 1.11D-09 XBig12= 6.35D-15 6.37D-09.
      9 vectors produced by pass 25 Test12= 2.36D-14 1.11D-09 XBig12= 3.06D-15 3.92D-09.
      9 vectors produced by pass 26 Test12= 2.36D-14 1.11D-09 XBig12= 5.26D-15 5.64D-09.
      5 vectors produced by pass 27 Test12= 2.36D-14 1.11D-09 XBig12= 1.57D-15 3.84D-09.
      5 vectors produced by pass 28 Test12= 2.36D-14 1.11D-09 XBig12= 2.35D-15 3.76D-09.
      5 vectors produced by pass 29 Test12= 2.36D-14 1.11D-09 XBig12= 3.30D-15 5.23D-09.
      5 vectors produced by pass 30 Test12= 2.36D-14 1.11D-09 XBig12= 1.55D-15 3.16D-09.
      5 vectors produced by pass 31 Test12= 2.36D-14 1.11D-09 XBig12= 2.02D-15 3.56D-09.
      4 vectors produced by pass 32 Test12= 2.36D-14 1.11D-09 XBig12= 1.08D-15 2.69D-09.
      4 vectors produced by pass 33 Test12= 2.36D-14 1.11D-09 XBig12= 3.19D-15 4.35D-09.
      4 vectors produced by pass 34 Test12= 2.36D-14 1.11D-09 XBig12= 3.18D-15 4.66D-09.
      4 vectors produced by pass 35 Test12= 2.36D-14 1.11D-09 XBig12= 2.59D-15 4.88D-09.
      4 vectors produced by pass 36 Test12= 2.36D-14 1.11D-09 XBig12= 3.44D-15 4.70D-09.
      4 vectors produced by pass 37 Test12= 2.36D-14 1.11D-09 XBig12= 1.66D-15 2.79D-09.
      4 vectors produced by pass 38 Test12= 2.36D-14 1.11D-09 XBig12= 3.69D-15 4.39D-09.
      4 vectors produced by pass 39 Test12= 2.36D-14 1.11D-09 XBig12= 2.34D-15 4.47D-09.
      4 vectors produced by pass 40 Test12= 2.36D-14 1.11D-09 XBig12= 4.72D-15 5.33D-09.
      4 vectors produced by pass 41 Test12= 2.36D-14 1.11D-09 XBig12= 2.12D-15 2.76D-09.
      4 vectors produced by pass 42 Test12= 2.36D-14 1.11D-09 XBig12= 5.34D-15 6.10D-09.
      4 vectors produced by pass 43 Test12= 2.36D-14 1.11D-09 XBig12= 3.24D-15 3.64D-09.
      4 vectors produced by pass 44 Test12= 2.36D-14 1.11D-09 XBig12= 4.72D-15 6.54D-09.
      4 vectors produced by pass 45 Test12= 2.36D-14 1.11D-09 XBig12= 2.34D-15 3.98D-09.
      4 vectors produced by pass 46 Test12= 2.36D-14 1.11D-09 XBig12= 4.05D-15 5.66D-09.
      3 vectors produced by pass 47 Test12= 2.36D-14 1.11D-09 XBig12= 2.04D-15 3.13D-09.
      2 vectors produced by pass 48 Test12= 2.36D-14 1.11D-09 XBig12= 3.07D-15 3.22D-09.
 InvSVY:  IOpt=1 It=  1 EMax= 1.11D-15
 Solved reduced A of dimension   931 with    90 vectors.
 End of Minotr F.D. properties file   721 does not exist.
 End of Minotr F.D. properties file   722 does not exist.
 End of Minotr F.D. properties file   788 does not exist.

 **********************************************************************

            Population analysis using the SCF density.

 **********************************************************************

 Orbital symmetries:
       Occupied  (A) (A) (A) (A) (A) (A) (A) (A) (A) (A) (A) (A)
                 (A) (A) (A) (A) (A) (A) (A) (A) (A) (A) (A) (A)
                 (A) (A) (A) (A) (A) (A) (A) (A) (A) (A) (A) (A)
                 (A) (A) (A) (A) (A) (A) (A) (A) (A) (A) (A) (A)
                 (A) (A) (A) (A) (A) (A) (A) (A) (A) (A) (A) (A)
                 (A) (A) (A) (A) (A) (A) (A) (A) (A) (A) (A) (A)
       Virtual   (A) (A) (A) (A) (A) (A) (A) (A) (A) (A) (A) (A)
                 (A) (A) (A) (A) (A) (A) (A) (A) (A) (A) (A) (A)
                 (A) (A) (A) (A) (A) (A) (A) (A) (A) (A) (A) (A)
                 (A) (A) (A) (A) (A) (A) (A) (A) (A) (A) (A) (A)
                 (A) (A) (A) (A) (A) (A) (A) (A) (A) (A) (A) (A)
                 (A) (A) (A) (A) (A) (A) (A) (A) (A) (A) (A) (A)
                 (A) (A) (A) (A) (A) (A) (A) (A) (A) (A) (A) (A)
                 (A) (A) (A) (A) (A) (A) (A) (A) (A) (A) (A) (A)
                 (A) (A) (A) (A) (A) (A) (A) (A) (A) (A) (A) (A)
                 (A) (A) (A) (A) (A) (A) (A) (A) (A) (A) (A) (A)
                 (A) (A) (A) (A) (A) (A) (A) (A) (A) (A) (A) (A)
                 (A) (A) (A) (A) (A) (A) (A) (A) (A) (A) (A) (A)
                 (A) (A) (A) (A) (A) (A) (A) (A) (A) (A) (A) (A)
                 (A) (A) (A) (A) (A) (A) (A) (A) (A) (A) (A) (A)
                 (A) (A) (A) (A) (A) (A) (A) (A) (A) (A) (A) (A)
                 (A) (A) (A) (A) (A) (A) (A) (A) (A) (A) (A) (A)
                 (A) (A) (A) (A) (A) (A) (A) (A) (A) (A) (A) (A)
                 (A) (A) (A) (A) (A) (A) (A) (A) (A) (A) (A) (A)
                 (A) (A) (A) (A) (A) (A) (A) (A) (A) (A) (A) (A)
                 (A) (A) (A) (A) (A) (A) (A) (A) (A) (A) (A) (A)
                 (A) (A) (A) (A) (A) (A) (A) (A) (A) (A) (A) (A)
                 (A) (A) (A) (A) (A) (A) (A) (A) (A) (A) (A) (A)
                 (A) (A) (A) (A) (A) (A) (A) (A) (A) (A) (A) (A)
                 (A) (A) (A) (A) (A) (A) (A) (A) (A) (A) (A) (A)
                 (A) (A) (A) (A) (A) (A) (A)
 The electronic state is 1-A.
 Alpha  occ. eigenvalues -- -102.55867 -25.19141 -25.18937 -25.18936 -19.43323
 Alpha  occ. eigenvalues --  -14.63922 -14.55820 -10.70674 -10.49971 -10.49299
 Alpha  occ. eigenvalues --  -10.47266 -10.46772 -10.46502 -10.46438 -10.45998
 Alpha  occ. eigenvalues --  -10.44464 -10.42645 -10.42446  -9.70503  -7.42896
 Alpha  occ. eigenvalues --   -7.42254  -7.42254  -1.33007  -1.25236  -1.25196
 Alpha  occ. eigenvalues --   -1.00517  -0.88372  -0.87732  -0.82758  -0.79272
 Alpha  occ. eigenvalues --   -0.78008  -0.75601  -0.69478  -0.67913  -0.65643
 Alpha  occ. eigenvalues --   -0.59386  -0.58496  -0.57570  -0.56640  -0.55137
 Alpha  occ. eigenvalues --   -0.52786  -0.49472  -0.45655  -0.45581  -0.45476
 Alpha  occ. eigenvalues --   -0.45022  -0.43552  -0.42683  -0.41981  -0.41420
 Alpha  occ. eigenvalues --   -0.40129  -0.39586  -0.38536  -0.38253  -0.37719
 Alpha  occ. eigenvalues --   -0.35604  -0.34480  -0.34273  -0.33149  -0.33121
 Alpha  occ. eigenvalues --   -0.31452  -0.30682  -0.30449  -0.29591  -0.27861
 Alpha  occ. eigenvalues --   -0.26181  -0.20224  -0.20012  -0.19222  -0.17119
 Alpha  occ. eigenvalues --   -0.12573  -0.09029
 Alpha virt. eigenvalues --    0.09514   0.10878   0.11206   0.12522   0.12727
 Alpha virt. eigenvalues --    0.13064   0.13340   0.13786   0.14143   0.14896
 Alpha virt. eigenvalues --    0.15581   0.15935   0.15953   0.16234   0.16472
 Alpha virt. eigenvalues --    0.17315   0.17900   0.18235   0.18968   0.19267
 Alpha virt. eigenvalues --    0.19706   0.19986   0.20747   0.21697   0.22339
 Alpha virt. eigenvalues --    0.22582   0.23365   0.24237   0.24740   0.24912
 Alpha virt. eigenvalues --    0.25597   0.26468   0.26524   0.27122   0.27647
 Alpha virt. eigenvalues --    0.27821   0.28872   0.28916   0.29865   0.29936
 Alpha virt. eigenvalues --    0.30829   0.31056   0.31634   0.31957   0.32523
 Alpha virt. eigenvalues --    0.32581   0.32657   0.32885   0.34106   0.34180
 Alpha virt. eigenvalues --    0.34616   0.34792   0.35138   0.35963   0.36504
 Alpha virt. eigenvalues --    0.36866   0.37238   0.37311   0.37736   0.38574
 Alpha virt. eigenvalues --    0.39485   0.39587   0.39911   0.40811   0.41217
 Alpha virt. eigenvalues --    0.41834   0.42019   0.42408   0.42885   0.43353
 Alpha virt. eigenvalues --    0.44323   0.44573   0.45260   0.45625   0.46413
 Alpha virt. eigenvalues --    0.46697   0.46993   0.47538   0.47858   0.49173
 Alpha virt. eigenvalues --    0.49274   0.49733   0.50495   0.50719   0.50979
 Alpha virt. eigenvalues --    0.51821   0.52134   0.53823   0.54387   0.55596
 Alpha virt. eigenvalues --    0.55799   0.56229   0.57433   0.58079   0.58860
 Alpha virt. eigenvalues --    0.60610   0.61592   0.65104   0.65651   0.68746
 Alpha virt. eigenvalues --    0.70369   0.70766   0.73699   0.75210   0.77477
 Alpha virt. eigenvalues --    0.78114   0.79686   0.81589   0.82735   0.83048
 Alpha virt. eigenvalues --    0.83648   0.84740   0.85525   0.86006   0.87150
 Alpha virt. eigenvalues --    0.87779   0.88817   0.89165   0.90530   0.92300
 Alpha virt. eigenvalues --    0.93373   0.94530   0.95435   0.95873   0.96839
 Alpha virt. eigenvalues --    0.97653   0.98076   0.98412   0.99625   1.01266
 Alpha virt. eigenvalues --    1.01838   1.03008   1.06470   1.08059   1.09654
 Alpha virt. eigenvalues --    1.09838   1.10276   1.10448   1.12051   1.13851
 Alpha virt. eigenvalues --    1.14227   1.15456   1.16131   1.16613   1.17037
 Alpha virt. eigenvalues --    1.20625   1.20915   1.22256   1.22792   1.23719
 Alpha virt. eigenvalues --    1.25658   1.26337   1.26692   1.27386   1.28805
 Alpha virt. eigenvalues --    1.29961   1.31883   1.33769   1.34481   1.36873
 Alpha virt. eigenvalues --    1.38700   1.40456   1.41403   1.42668   1.44821
 Alpha virt. eigenvalues --    1.48067   1.49818   1.51594   1.51758   1.52183
 Alpha virt. eigenvalues --    1.54022   1.56356   1.57018   1.58521   1.59872
 Alpha virt. eigenvalues --    1.61356   1.61519   1.63209   1.64192   1.66650
 Alpha virt. eigenvalues --    1.67443   1.68329   1.69973   1.70598   1.72701
 Alpha virt. eigenvalues --    1.76136   1.77295   1.79562   1.79729   1.80580
 Alpha virt. eigenvalues --    1.83834   1.85593   1.86465   1.86545   1.87430
 Alpha virt. eigenvalues --    1.89023   1.91704   1.92479   1.95123   1.95807
 Alpha virt. eigenvalues --    1.98115   1.98237   1.98416   1.99353   2.00231
 Alpha virt. eigenvalues --    2.00465   2.02017   2.03412   2.04152   2.05032
 Alpha virt. eigenvalues --    2.06102   2.07478   2.08189   2.09840   2.12693
 Alpha virt. eigenvalues --    2.12962   2.13787   2.13910   2.14376   2.16542
 Alpha virt. eigenvalues --    2.16972   2.18820   2.19828   2.20102   2.20689
 Alpha virt. eigenvalues --    2.21334   2.21543   2.24911   2.25598   2.27035
 Alpha virt. eigenvalues --    2.31008   2.31437   2.31947   2.33194   2.34546
 Alpha virt. eigenvalues --    2.37397   2.38796   2.40981   2.41883   2.42424
 Alpha virt. eigenvalues --    2.43441   2.44688   2.46263   2.48900   2.51461
 Alpha virt. eigenvalues --    2.52022   2.55125   2.56529   2.59045   2.63128
 Alpha virt. eigenvalues --    2.65913   2.72705   2.74325   2.75660   2.76838
 Alpha virt. eigenvalues --    2.80103   2.81294   2.84966   2.87014   2.88646
 Alpha virt. eigenvalues --    2.91097   2.92400   2.92675   2.93815   2.96311
 Alpha virt. eigenvalues --    3.00074   3.06381   3.10974   3.19136   3.24365
 Alpha virt. eigenvalues --    3.25423   3.29596   3.37838   3.39691   3.43951
 Alpha virt. eigenvalues --    3.49477   3.56088   4.29376   4.35545   4.38861
 Alpha virt. eigenvalues --    4.45786   4.50506   4.52356   4.57353   4.57997
 Alpha virt. eigenvalues --    4.60209   4.63384   4.64827   4.70980   4.74815
 Alpha virt. eigenvalues --    4.82352   4.93005   5.63005   6.20453   6.97334
          Condensed to atoms (all electrons):
               1          2          3          4          5          6
     1  C    5.643822  -0.097080   0.072209  -0.011445  -0.080395  -0.003575
     2  C   -0.097080   6.587120  -1.001216  -0.091746   0.340386   0.039329
     3  C    0.072209  -1.001216   8.061505   0.387905  -1.079420  -0.111574
     4  N   -0.011445  -0.091746   0.387905   7.993349   0.311712  -0.268652
     5  C   -0.080395   0.340386  -1.079420   0.311712   6.764491   0.619652
     6  O   -0.003575   0.039329  -0.111574  -0.268652   0.619652   8.555782
     7  N   -0.004121   0.035339  -0.168713  -0.406189   0.344611  -0.099087
     8  C   -0.013981   0.063657  -0.690373  -0.335674  -0.930849  -0.466601
     9  C    0.006139  -0.027544   0.284785   0.171077   0.936196   0.500116
    10  C   -0.004503   0.031793  -0.324558  -0.243522  -2.148761  -0.193404
    11  C    0.000197  -0.003842   0.028323   0.013821   0.197465   0.031567
    12  C   -0.000097   0.000741  -0.013787  -0.000016  -0.044012  -0.016546
    13  C    0.000598  -0.001558   0.037776   0.056393   0.335069   0.068944
    14  H    0.416791  -0.107525   0.039120   0.000641  -0.001302   0.000007
    15  H    0.422762  -0.063304  -0.012060  -0.000129  -0.001860  -0.000067
    16  H    0.422436  -0.063920  -0.011187  -0.000162  -0.001769  -0.000065
    17  H   -0.035306   0.419135  -0.065161   0.002850  -0.009708  -0.000290
    18  H   -0.034816   0.419826  -0.066030   0.002826  -0.010100  -0.000297
    19  H    0.000556  -0.058618   0.430198  -0.064221  -0.004251  -0.000348
    20  H    0.000833  -0.057248   0.430505  -0.064324  -0.005875  -0.000425
    21  H   -0.005189   0.018303  -0.159537   0.217790   0.100168   0.012520
    22  H    0.000005  -0.000144   0.005451   0.001919   0.038239  -0.002324
    23  H    0.000000   0.000011  -0.001033  -0.000687  -0.029578   0.000115
    24  H    0.000000   0.000000   0.000028   0.000015   0.003275   0.000000
    25  Cl  -0.000001   0.000005  -0.000200   0.000007  -0.009167   0.000110
    26  C   -0.000046   0.000430  -0.010979   0.000139  -0.177702   0.004696
    27  F    0.000001   0.000005   0.000323  -0.000053   0.005581  -0.000686
    28  F    0.000000  -0.000000   0.000005  -0.000004   0.001521  -0.000029
    29  F    0.000000  -0.000000   0.000019  -0.000001   0.002230  -0.000027
               7          8          9         10         11         12
     1  C   -0.004121  -0.013981   0.006139  -0.004503   0.000197  -0.000097
     2  C    0.035339   0.063657  -0.027544   0.031793  -0.003842   0.000741
     3  C   -0.168713  -0.690373   0.284785  -0.324558   0.028323  -0.013787
     4  N   -0.406189  -0.335674   0.171077  -0.243522   0.013821  -0.000016
     5  C    0.344611  -0.930849   0.936196  -2.148761   0.197465  -0.044012
     6  O   -0.099087  -0.466601   0.500116  -0.193404   0.031567  -0.016546
     7  N    7.563146   0.587962  -0.227293  -0.243158   0.125121  -0.022933
     8  C    0.587962  15.293329  -2.513542  -0.862482   0.543606  -1.110311
     9  C   -0.227293  -2.513542  12.371808  -6.308975   0.448326  -2.433591
    10  C   -0.243158  -0.862482  -6.308975  19.622997  -2.514906   0.535092
    11  C    0.125121   0.543606   0.448326  -2.514906   9.644344  -1.565193
    12  C   -0.022933  -1.110311  -2.433591   0.535092  -1.565193  16.041621
    13  C   -0.012912  -2.793044   2.194936  -1.729994  -0.706765  -4.405757
    14  H    0.000011  -0.000040   0.000009  -0.000003  -0.000000  -0.000000
    15  H    0.000002  -0.000001  -0.000026  -0.000001   0.000000   0.000000
    16  H    0.000002  -0.000005  -0.000021  -0.000002   0.000000   0.000000
    17  H   -0.000498  -0.000623  -0.000025  -0.000052   0.000003  -0.000000
    18  H   -0.000471  -0.000628  -0.000094   0.000013   0.000004  -0.000000
    19  H   -0.000978  -0.003575   0.002281  -0.001037  -0.000002   0.000014
    20  H   -0.000523  -0.004665   0.002709  -0.000718  -0.000009   0.000014
    21  H    0.040491   0.027631  -0.007735   0.007525   0.000088  -0.000013
    22  H   -0.006726  -0.095508   0.434202  -0.000058  -0.019740  -0.054902
    23  H   -0.010877   0.067073   0.048676   0.373528  -0.152871  -0.009299
    24  H    0.000924   0.008218  -0.009378  -0.079429   0.219524   0.049093
    25  Cl  -0.001078  -0.007108   0.007941   0.097721  -0.050579  -0.416714
    26  C    0.008940  -0.768326  -0.208718   0.633799  -0.086892  -0.475120
    27  F   -0.000484   0.097236   0.055861  -0.000848   0.016414  -0.013917
    28  F    0.000216   0.036990   0.040252  -0.009797  -0.003875  -0.238445
    29  F    0.000226   0.038690   0.041979  -0.013643   0.001996  -0.236064
              13         14         15         16         17         18
     1  C    0.000598   0.416791   0.422762   0.422436  -0.035306  -0.034816
     2  C   -0.001558  -0.107525  -0.063304  -0.063920   0.419135   0.419826
     3  C    0.037776   0.039120  -0.012060  -0.011187  -0.065161  -0.066030
     4  N    0.056393   0.000641  -0.000129  -0.000162   0.002850   0.002826
     5  C    0.335069  -0.001302  -0.001860  -0.001769  -0.009708  -0.010100
     6  O    0.068944   0.000007  -0.000067  -0.000065  -0.000290  -0.000297
     7  N   -0.012912   0.000011   0.000002   0.000002  -0.000498  -0.000471
     8  C   -2.793044  -0.000040  -0.000001  -0.000005  -0.000623  -0.000628
     9  C    2.194936   0.000009  -0.000026  -0.000021  -0.000025  -0.000094
    10  C   -1.729994  -0.000003  -0.000001  -0.000002  -0.000052   0.000013
    11  C   -0.706765  -0.000000   0.000000   0.000000   0.000003   0.000004
    12  C   -4.405757  -0.000000   0.000000   0.000000  -0.000000  -0.000000
    13  C   15.382088   0.000000   0.000001   0.000001   0.000006   0.000002
    14  H    0.000000   0.522449  -0.026670  -0.026663  -0.003158  -0.003137
    15  H    0.000001  -0.026670   0.504254  -0.028627  -0.004921   0.004137
    16  H    0.000001  -0.026663  -0.028627   0.504290   0.004136  -0.004934
    17  H    0.000006  -0.003158  -0.004921   0.004136   0.524705  -0.034845
    18  H    0.000002  -0.003137   0.004137  -0.004934  -0.034845   0.525003
    19  H    0.000188  -0.000076  -0.000342   0.002819   0.004326  -0.006350
    20  H    0.000200  -0.000076   0.002844  -0.000335  -0.006381   0.004331
    21  H   -0.001085  -0.000002  -0.000000  -0.000000   0.000364   0.000394
    22  H   -0.006710   0.000000  -0.000000  -0.000000  -0.000000  -0.000000
    23  H    0.011292  -0.000000  -0.000000  -0.000000  -0.000000  -0.000000
    24  H    0.115625  -0.000000   0.000000   0.000000   0.000000   0.000000
    25  Cl   0.049926  -0.000000  -0.000000  -0.000000  -0.000000  -0.000000
    26  C   -1.576212  -0.000000  -0.000000  -0.000000  -0.000000  -0.000000
    27  F   -0.226255   0.000000  -0.000000   0.000000  -0.000000  -0.000000
    28  F    0.237382  -0.000000   0.000000  -0.000000  -0.000000   0.000000
    29  F    0.234969  -0.000000  -0.000000   0.000000   0.000000  -0.000000
              19         20         21         22         23         24
     1  C    0.000556   0.000833  -0.005189   0.000005   0.000000   0.000000
     2  C   -0.058618  -0.057248   0.018303  -0.000144   0.000011   0.000000
     3  C    0.430198   0.430505  -0.159537   0.005451  -0.001033   0.000028
     4  N   -0.064221  -0.064324   0.217790   0.001919  -0.000687   0.000015
     5  C   -0.004251  -0.005875   0.100168   0.038239  -0.029578   0.003275
     6  O   -0.000348  -0.000425   0.012520  -0.002324   0.000115   0.000000
     7  N   -0.000978  -0.000523   0.040491  -0.006726  -0.010877   0.000924
     8  C   -0.003575  -0.004665   0.027631  -0.095508   0.067073   0.008218
     9  C    0.002281   0.002709  -0.007735   0.434202   0.048676  -0.009378
    10  C   -0.001037  -0.000718   0.007525  -0.000058   0.373528  -0.079429
    11  C   -0.000002  -0.000009   0.000088  -0.019740  -0.152871   0.219524
    12  C    0.000014   0.000014  -0.000013  -0.054902  -0.009299   0.049093
    13  C    0.000188   0.000200  -0.001085  -0.006710   0.011292   0.115625
    14  H   -0.000076  -0.000076  -0.000002   0.000000  -0.000000  -0.000000
    15  H   -0.000342   0.002844  -0.000000  -0.000000  -0.000000   0.000000
    16  H    0.002819  -0.000335  -0.000000  -0.000000  -0.000000   0.000000
    17  H    0.004326  -0.006381   0.000364  -0.000000  -0.000000   0.000000
    18  H   -0.006350   0.004331   0.000394  -0.000000  -0.000000   0.000000
    19  H    0.536652  -0.043159   0.002636  -0.000001  -0.000000  -0.000000
    20  H   -0.043159   0.535924   0.002663  -0.000001  -0.000000  -0.000000
    21  H    0.002636   0.002663   0.336088  -0.000002   0.000004  -0.000000
    22  H   -0.000001  -0.000001  -0.000002   0.419122  -0.000115   0.000011
    23  H   -0.000000  -0.000000   0.000004  -0.000115   0.503753  -0.004521
    24  H   -0.000000  -0.000000  -0.000000   0.000011  -0.004521   0.504647
    25  Cl  -0.000000  -0.000000   0.000000   0.000317   0.000373  -0.003317
    26  C   -0.000003   0.000000  -0.000025  -0.005827   0.005340   0.000543
    27  F   -0.000000   0.000000   0.000000   0.008294  -0.000001   0.000013
    28  F   -0.000000   0.000000  -0.000000  -0.000156   0.000001   0.000003
    29  F    0.000000  -0.000000  -0.000000  -0.000157   0.000001   0.000002
              25         26         27         28         29
     1  C   -0.000001  -0.000046   0.000001   0.000000   0.000000
     2  C    0.000005   0.000430   0.000005  -0.000000  -0.000000
     3  C   -0.000200  -0.010979   0.000323   0.000005   0.000019
     4  N    0.000007   0.000139  -0.000053  -0.000004  -0.000001
     5  C   -0.009167  -0.177702   0.005581   0.001521   0.002230
     6  O    0.000110   0.004696  -0.000686  -0.000029  -0.000027
     7  N   -0.001078   0.008940  -0.000484   0.000216   0.000226
     8  C   -0.007108  -0.768326   0.097236   0.036990   0.038690
     9  C    0.007941  -0.208718   0.055861   0.040252   0.041979
    10  C    0.097721   0.633799  -0.000848  -0.009797  -0.013643
    11  C   -0.050579  -0.086892   0.016414  -0.003875   0.001996
    12  C   -0.416714  -0.475120  -0.013917  -0.238445  -0.236064
    13  C    0.049926  -1.576212  -0.226255   0.237382   0.234969
    14  H   -0.000000  -0.000000   0.000000  -0.000000  -0.000000
    15  H   -0.000000  -0.000000  -0.000000   0.000000  -0.000000
    16  H   -0.000000  -0.000000   0.000000  -0.000000   0.000000
    17  H   -0.000000  -0.000000  -0.000000  -0.000000   0.000000
    18  H   -0.000000  -0.000000  -0.000000   0.000000  -0.000000
    19  H   -0.000000  -0.000003  -0.000000  -0.000000   0.000000
    20  H   -0.000000   0.000000   0.000000   0.000000  -0.000000
    21  H    0.000000  -0.000025   0.000000  -0.000000  -0.000000
    22  H    0.000317  -0.005827   0.008294  -0.000156  -0.000157
    23  H    0.000373   0.005340  -0.000001   0.000001   0.000001
    24  H   -0.003317   0.000543   0.000013   0.000003   0.000002
    25  Cl  17.222018  -0.036972  -0.000305  -0.002970  -0.003574
    26  C   -0.036972   7.109193   0.182474   0.053962   0.048352
    27  F   -0.000305   0.182474   9.290486  -0.037160  -0.037296
    28  F   -0.002970   0.053962  -0.037160   9.255606  -0.052128
    29  F   -0.003574   0.048352  -0.037296  -0.052128   9.255584
 Mulliken charges:
               1
     1  C   -0.695797
     2  C   -0.382333
     3  C   -0.062323
     4  N   -0.673616
     5  C    0.534151
     6  O   -0.668844
     7  N   -0.500949
     8  C   -0.167058
     9  C    0.189648
    10  C   -0.622617
    11  C   -0.166123
    12  C    0.430142
    13  C   -1.265106
    14  H    0.189623
    15  H    0.204008
    16  H    0.204005
    17  H    0.205444
    18  H    0.205166
    19  H    0.203292
    20  H    0.203713
    21  H    0.406923
    22  H    0.284811
    23  H    0.198811
    24  H    0.194723
    25  Cl   0.153566
    26  C    1.298954
    27  F   -0.339683
    28  F   -0.281375
    29  F   -0.281158
 Sum of Mulliken charges =  -1.00000
 Mulliken charges with hydrogens summed into heavy atoms:
               1
     1  C   -0.098161
     2  C    0.028278
     3  C    0.344682
     4  N   -0.266693
     5  C    0.534151
     6  O   -0.668844
     7  N   -0.500949
     8  C   -0.167058
     9  C    0.474459
    10  C   -0.423806
    11  C    0.028600
    12  C    0.430142
    13  C   -1.265106
    25  Cl   0.153566
    26  C    1.298954
    27  F   -0.339683
    28  F   -0.281375
    29  F   -0.281158
 APT charges:
               1
     1  C   -2.662258
     2  C   -0.598289
     3  C    0.087812
     4  N   -0.204880
     5  C    0.470578
     6  O   -0.797805
     7  N   -0.938945
     8  C   -1.085659
     9  C   -0.681477
    10  C   -0.209488
    11  C   -0.506217
    12  C    1.846861
    13  C   -0.977970
    14  H    1.083550
    15  H    0.328289
    16  H    0.337724
    17  H    0.446969
    18  H    0.455705
    19  H    0.297243
    20  H    0.291408
    21  H    0.752368
    22  H    0.398250
    23  H    0.610092
    24  H    0.797035
    25  Cl  -0.282011
    26  C    0.193635
    27  F   -0.309526
    28  F   -0.071442
    29  F   -0.071554
 Sum of APT charges =  -1.00000
 APT charges with hydrogens summed into heavy atoms:
               1
     1  C   -0.912694
     2  C    0.304385
     3  C    0.676463
     4  N    0.547488
     5  C    0.470578
     6  O   -0.797805
     7  N   -0.938945
     8  C   -1.085659
     9  C   -0.283227
    10  C    0.400604
    11  C    0.290818
    12  C    1.846861
    13  C   -0.977970
    25  Cl  -0.282011
    26  C    0.193635
    27  F   -0.309526
    28  F   -0.071442
    29  F   -0.071554
 Electronic spatial extent (au):  <R**2>=           8347.8631
 Charge=             -1.0000 electrons
 Dipole moment (field-independent basis, Debye):
    X=              1.7570    Y=             -0.6906    Z=              0.0585  Tot=              1.8888
 Quadrupole moment (field-independent basis, Debye-Ang):
   XX=           -149.8577   YY=           -124.8845   ZZ=           -119.0236
   XY=             -0.3542   XZ=              0.1782   YZ=              0.1154
 Traceless Quadrupole moment (field-independent basis, Debye-Ang):
   XX=            -18.6024   YY=              6.3708   ZZ=             12.2316
   XY=             -0.3542   XZ=              0.1782   YZ=              0.1154
 Octapole moment (field-independent basis, Debye-Ang**2):
  XXX=             16.6718  YYY=             27.8827  ZZZ=             -0.0766  XYY=            -21.4266
  XXY=             -5.5069  XXZ=              0.4311  XZZ=            -11.8532  YZZ=             19.2266
  YYZ=              0.1528  XYZ=              0.2199
 Hexadecapole moment (field-independent basis, Debye-Ang**3):
 XXXX=         -10241.9252 YYYY=          -1340.9592 ZZZZ=           -228.8312 XXXY=           -236.3626
 XXXZ=              1.2334 YYYX=            -76.0351 YYYZ=              0.4353 ZZZX=             -0.7001
 ZZZY=              0.1436 XXYY=          -1879.0879 XXZZ=          -1652.7419 YYZZ=           -278.2271
 XXYZ=              0.2733 YYXZ=              0.7040 ZZXY=            -24.5816
 N-N= 1.406631758803D+03 E-N=-6.057166990425D+03  KE= 1.360811220523D+03
  Exact polarizability:   0.000   0.000   0.000   0.000   0.000   0.000
 Approx polarizability: 277.618   6.822 210.161   0.151  -0.232 142.451
 Calling FoFJK, ICntrl=    100147 FMM=F ISym2X=0 I1Cent= 0 IOpClX= 0 NMat=1 NMatS=1 NMatT=0.
 ***** Axes restored to original set *****
 -------------------------------------------------------------------
 Center     Atomic                   Forces (Hartrees/Bohr)
 Number     Number              X              Y              Z
 -------------------------------------------------------------------
      1        6          -0.006428837   -0.000381031    0.000060457
      2        6           0.004858799   -0.002409943    0.000326972
      3        6           0.005942169   -0.000431920    0.000022644
      4        7          -0.016744630   -0.038130357    0.006068871
      5        6           0.073081385    0.001331091   -0.000327575
      6        8          -0.024358929    0.052926398   -0.008593355
      7        7           0.028267948   -0.028214228    0.004698239
      8        6          -0.081800328   -0.006351922    0.000911532
      9        6           0.027576752    0.010315436   -0.001855304
     10        6           0.012054997    0.002041385   -0.000263291
     11        6          -0.008757291    0.002955105   -0.000646343
     12        6          -0.002246310    0.005687534   -0.001051148
     13        6          -0.006377752   -0.011493953    0.002039842
     14        1           0.004393762    0.009079692   -0.001362807
     15        1          -0.000711941   -0.002992741    0.009898307
     16        1          -0.000634660   -0.005836136   -0.008542455
     17        1           0.000980073    0.004293617    0.008224319
     18        1           0.001057700    0.001601285   -0.009058262
     19        1          -0.000136799   -0.003055544   -0.009280918
     20        1          -0.000071346   -0.000006899    0.009794155
     21        1           0.002647386    0.019061115   -0.003014715
     22        1          -0.010307365    0.000248595    0.000063116
     23        1          -0.005039235   -0.000679893    0.000100938
     24        1           0.003192032    0.000216207   -0.000016274
     25       17          -0.000566463   -0.000226686    0.000058754
     26        6          -0.006421116   -0.009908365    0.001790447
     27        9           0.036867045   -0.013207346    0.002611378
     28        9          -0.015283953    0.012163983    0.027886768
     29        9          -0.015033096    0.001405521   -0.030544294
 -------------------------------------------------------------------
 Cartesian Forces:  Max     0.081800328 RMS     0.017142986
 FormGI is forming the generalized inverse of G from B-inverse, IUseBI=4.
 GSVD:  received Info=                   1 from GESDD.

 GradGradGradGradGradGradGradGradGradGradGradGradGradGradGradGradGradGrad
 Berny optimization.
 Internal  Forces:  Max     0.069325868 RMS     0.012463637
 Search for a local minimum.
 Step number   1 out of a maximum of  150
 All quantities printed in internal units (Hartrees-Bohrs-Radians)
 Mixed Optimization -- RFO/linear search
 Second derivative matrix not updated -- analytic derivatives used.
 ITU=  0
     Eigenvalues ---   -0.00299  -0.00031   0.00200   0.00335   0.00450
     Eigenvalues ---    0.00616   0.00988   0.01283   0.01607   0.01757
     Eigenvalues ---    0.01832   0.02151   0.02263   0.02355   0.02656
     Eigenvalues ---    0.02688   0.03129   0.03688   0.04012   0.04540
     Eigenvalues ---    0.04641   0.04701   0.05135   0.06701   0.07920
     Eigenvalues ---    0.08083   0.10115   0.10419   0.10881   0.11151
     Eigenvalues ---    0.11432   0.11587   0.11892   0.12769   0.13208
     Eigenvalues ---    0.13838   0.14138   0.15633   0.16141   0.17318
     Eigenvalues ---    0.17394   0.18583   0.18776   0.18884   0.21652
     Eigenvalues ---    0.22263   0.23104   0.23246   0.24017   0.24419
     Eigenvalues ---    0.25415   0.27483   0.29637   0.30283   0.30409
     Eigenvalues ---    0.30821   0.30833   0.31034   0.31147   0.31433
     Eigenvalues ---    0.31536   0.31555   0.31998   0.32238   0.33170
     Eigenvalues ---    0.36577   0.37530   0.37679   0.38118   0.38823
     Eigenvalues ---    0.40726   0.41438   0.42093   0.43099   0.44557
     Eigenvalues ---    0.45679   0.47209   0.49496   0.50313   0.57831
     Eigenvalues ---    0.89690
 RFO step:  Lambda=-5.06540560D-02 EMin=-2.98903219D-03
 Linear search not attempted -- first point.
 Maximum step size (   0.300) exceeded in Quadratic search.
    -- Step size scaled by   0.794
 Iteration  1 RMS(Cart)=  0.13152879 RMS(Int)=  0.01547918
 Iteration  2 RMS(Cart)=  0.05250539 RMS(Int)=  0.00402858
 Iteration  3 RMS(Cart)=  0.00160526 RMS(Int)=  0.00396168
 Iteration  4 RMS(Cart)=  0.00000405 RMS(Int)=  0.00396168
 Iteration  5 RMS(Cart)=  0.00000004 RMS(Int)=  0.00396168
 Variable       Old X    -DE/DX   Delta X   Delta X   Delta X     New X
                                 (Linear)    (Quad)   (Total)
    R1        2.88355   0.00295   0.00000   0.00416   0.00416   2.88771
    R2        2.09830  -0.00952   0.00000  -0.02017  -0.02017   2.07814
    R3        2.09930  -0.01009   0.00000  -0.02076  -0.02076   2.07855
    R4        2.09926  -0.01008   0.00000  -0.02095  -0.02095   2.07832
    R5        2.89699  -0.00487   0.00000  -0.00984  -0.00984   2.88715
    R6        2.10115  -0.00878   0.00000  -0.01864  -0.01864   2.08251
    R7        2.10103  -0.00873   0.00000  -0.01860  -0.01860   2.08243
    R8        2.74533  -0.00833   0.00000  -0.01801  -0.01801   2.72732
    R9        2.10232  -0.00874   0.00000  -0.01685  -0.01685   2.08547
   R10        2.10229  -0.00875   0.00000  -0.01749  -0.01749   2.08480
   R11        2.57629   0.01424   0.00000   0.03059   0.03059   2.60688
   R12        1.95073  -0.01919   0.00000  -0.03359  -0.03359   1.91715
   R13        2.30646   0.05444   0.00000   0.03425   0.03425   2.34071
   R14        2.58800  -0.02083   0.00000  -0.03001  -0.03001   2.55799
   R15        2.72230  -0.06933   0.00000  -0.14720  -0.14720   2.57510
   R16        2.67734   0.00012   0.00000   0.01604   0.01608   2.69343
   R17        2.65637   0.00183   0.00000   0.02141   0.02142   2.67779
   R18        2.66834  -0.01403   0.00000  -0.02624  -0.02621   2.64212
   R19        2.02476   0.00760   0.00000   0.01184   0.01184   2.03660
   R20        2.63202  -0.00391   0.00000  -0.01084  -0.01086   2.62115
   R21        2.04671   0.00154   0.00000   0.00424   0.00424   2.05096
   R22        2.63470  -0.00338   0.00000  -0.00328  -0.00332   2.63138
   R23        2.04631   0.00222   0.00000   0.00494   0.00494   2.05125
   R24        2.66623  -0.00956   0.00000  -0.01801  -0.01803   2.64821
   R25        3.32990  -0.00061   0.00000  -0.00315  -0.00315   3.32674
   R26        2.86478  -0.00947   0.00000  -0.01755  -0.01755   2.84723
   R27        2.61617  -0.03811   0.00000  -0.06408  -0.06408   2.55209
   R28        2.61391  -0.03063   0.00000  -0.04802  -0.04802   2.56589
   R29        2.61384  -0.03066   0.00000  -0.04740  -0.04740   2.56643
    A1        1.91262   0.00468   0.00000   0.01969   0.01959   1.93220
    A2        1.92587   0.00179   0.00000   0.00585   0.00580   1.93167
    A3        1.92569   0.00183   0.00000   0.00558   0.00554   1.93123
    A4        1.89665  -0.00281   0.00000  -0.00958  -0.00967   1.88698
    A5        1.89682  -0.00283   0.00000  -0.00875  -0.00885   1.88797
    A6        1.90569  -0.00282   0.00000  -0.01334  -0.01334   1.89236
    A7        1.94132   0.00104   0.00000   0.00696   0.00694   1.94826
    A8        1.90094   0.00089   0.00000   0.00658   0.00658   1.90753
    A9        1.90128   0.00086   0.00000   0.00557   0.00558   1.90686
   A10        1.91011  -0.00071   0.00000  -0.00338  -0.00344   1.90667
   A11        1.91122  -0.00074   0.00000  -0.00435  -0.00440   1.90682
   A12        1.89845  -0.00138   0.00000  -0.01172  -0.01176   1.88669
   A13        1.93760  -0.00371   0.00000  -0.00666  -0.00667   1.93094
   A14        1.90646   0.00158   0.00000   0.01071   0.01071   1.91717
   A15        1.90469   0.00176   0.00000  -0.00066  -0.00065   1.90404
   A16        1.90614   0.00183   0.00000   0.01030   0.01028   1.91642
   A17        1.90621   0.00172   0.00000   0.00727   0.00727   1.91347
   A18        1.90241  -0.00320   0.00000  -0.02137  -0.02135   1.88106
   A19        2.12684  -0.00225   0.00000  -0.00035  -0.02587   2.10097
   A20        2.07742   0.00440   0.00000   0.02150  -0.00650   2.07092
   A21        2.07893  -0.00214   0.00000  -0.02056  -0.04636   2.03256
   A22        2.08030  -0.00515   0.00000  -0.01120  -0.01120   2.06910
   A23        2.08439  -0.04150   0.00000  -0.09456  -0.09456   1.98983
   A24        2.11849   0.04665   0.00000   0.10576   0.10576   2.22426
   A25        2.23780  -0.04760   0.00000  -0.08975  -0.08975   2.14805
   A26        2.17566   0.00706   0.00000   0.04103   0.04100   2.21665
   A27        2.04983  -0.00287   0.00000  -0.00871  -0.00874   2.04109
   A28        2.05770  -0.00418   0.00000  -0.03232  -0.03226   2.02544
   A29        2.11617  -0.00024   0.00000   0.00546   0.00554   2.12171
   A30        2.12180  -0.00693   0.00000  -0.03250  -0.03254   2.08926
   A31        2.04521   0.00717   0.00000   0.02704   0.02700   2.07221
   A32        2.11722   0.00045   0.00000   0.01823   0.01821   2.13543
   A33        2.09941  -0.00518   0.00000  -0.03313  -0.03312   2.06630
   A34        2.06655   0.00474   0.00000   0.01490   0.01490   2.08146
   A35        2.10369  -0.00001   0.00000  -0.00086  -0.00093   2.10275
   A36        2.08358   0.00236   0.00000   0.01066   0.01070   2.09428
   A37        2.09592  -0.00235   0.00000  -0.00981  -0.00977   2.08615
   A38        2.09427  -0.00270   0.00000  -0.01308  -0.01314   2.08113
   A39        2.05767   0.00124   0.00000   0.00798   0.00801   2.06569
   A40        2.13124   0.00146   0.00000   0.00510   0.00513   2.13637
   A41        2.07732   0.00669   0.00000   0.02257   0.02258   2.09990
   A42        2.10634  -0.00693   0.00000  -0.02296  -0.02297   2.08337
   A43        2.09952   0.00024   0.00000   0.00040   0.00039   2.09991
   A44        1.95786   0.00824   0.00000   0.01196   0.01168   1.96955
   A45        1.91260   0.02054   0.00000   0.03910   0.03859   1.95119
   A46        1.91287   0.02051   0.00000   0.03874   0.03824   1.95111
   A47        1.88695  -0.01579   0.00000  -0.02566  -0.02593   1.86102
   A48        1.88706  -0.01580   0.00000  -0.02724  -0.02748   1.85959
   A49        1.90564  -0.01950   0.00000  -0.04029  -0.04097   1.86468
    D1        3.13990   0.00002   0.00000  -0.00122  -0.00122   3.13867
    D2        1.03325  -0.00033   0.00000  -0.00571  -0.00572   1.02752
    D3       -1.03503   0.00032   0.00000   0.00140   0.00142  -1.03362
    D4        1.05207  -0.00057   0.00000  -0.00541  -0.00544   1.04663
    D5       -1.05458  -0.00092   0.00000  -0.00990  -0.00994  -1.06452
    D6       -3.12286  -0.00026   0.00000  -0.00278  -0.00280  -3.12566
    D7       -1.05536   0.00061   0.00000   0.00381   0.00384  -1.05152
    D8        3.12117   0.00026   0.00000  -0.00067  -0.00066   3.12052
    D9        1.05289   0.00091   0.00000   0.00644   0.00648   1.05938
   D10       -3.14154  -0.00001   0.00000   0.02363   0.02363  -3.11790
   D11        1.03867  -0.00098   0.00000   0.00806   0.00805   1.04672
   D12       -1.03962   0.00093   0.00000   0.02804   0.02804  -1.01158
   D13       -1.04029   0.00129   0.00000   0.03405   0.03403  -1.00625
   D14        3.13992   0.00032   0.00000   0.01848   0.01845  -3.12481
   D15        1.06163   0.00223   0.00000   0.03846   0.03845   1.10007
   D16        1.03925  -0.00126   0.00000   0.01510   0.01512   1.05437
   D17       -1.06373  -0.00223   0.00000  -0.00047  -0.00046  -1.06419
   D18        3.14116  -0.00032   0.00000   0.01951   0.01953  -3.12249
   D19        3.13595   0.00006   0.00000   0.28960   0.28946  -2.85777
   D20       -0.00403   0.00005   0.00000  -0.14263  -0.14252  -0.14655
   D21       -1.04406   0.00087   0.00000   0.30542   0.30529  -0.73877
   D22        2.09914   0.00086   0.00000  -0.12681  -0.12669   1.97245
   D23        1.03493  -0.00091   0.00000   0.28989   0.28977   1.32471
   D24       -2.10505  -0.00092   0.00000  -0.14234  -0.14221  -2.24725
   D25        0.00014   0.00002   0.00000  -0.23768  -0.23277  -0.23263
   D26        3.14105  -0.00001   0.00000  -0.23422  -0.22940   2.91165
   D27        3.14012   0.00004   0.00000   0.19495   0.19014  -2.95293
   D28       -0.00215   0.00001   0.00000   0.19841   0.19350   0.19134
   D29        3.13681   0.00009   0.00000  -0.03383  -0.03391   3.10290
   D30       -0.00547   0.00003   0.00000  -0.03034  -0.03025  -0.03572
   D31       -0.01765   0.00016   0.00000  -0.00218  -0.00216  -0.01982
   D32        3.12624   0.00017   0.00000  -0.00361  -0.00363   3.12261
   D33       -3.13958   0.00002   0.00000  -0.00278  -0.00278   3.14082
   D34       -0.00028   0.00010   0.00000   0.00025   0.00021  -0.00007
   D35       -0.00030   0.00001   0.00000  -0.00131  -0.00130  -0.00160
   D36        3.13900   0.00010   0.00000   0.00172   0.00169   3.14069
   D37        3.14044  -0.00002   0.00000   0.00314   0.00310  -3.13965
   D38       -0.00159  -0.00000   0.00000   0.00272   0.00269   0.00110
   D39        0.00099  -0.00003   0.00000   0.00171   0.00170   0.00269
   D40       -3.14104  -0.00001   0.00000   0.00128   0.00129  -3.13974
   D41       -0.00051   0.00000   0.00000  -0.00005  -0.00004  -0.00055
   D42        3.14032   0.00002   0.00000   0.00225   0.00226  -3.14060
   D43       -3.13991  -0.00006   0.00000  -0.00288  -0.00293   3.14035
   D44        0.00092  -0.00004   0.00000  -0.00058  -0.00062   0.00030
   D45       -0.00086   0.00002   0.00000  -0.00074  -0.00075  -0.00161
   D46        3.14116   0.00001   0.00000  -0.00119  -0.00120   3.13996
   D47        3.14116   0.00001   0.00000  -0.00032  -0.00033   3.14083
   D48       -0.00001  -0.00001   0.00000  -0.00076  -0.00077  -0.00078
   D49        0.00001  -0.00000   0.00000  -0.00069  -0.00069  -0.00068
   D50       -3.14096  -0.00003   0.00000  -0.00376  -0.00377   3.13846
   D51        3.14118   0.00001   0.00000  -0.00023  -0.00024   3.14093
   D52        0.00020  -0.00001   0.00000  -0.00330  -0.00332  -0.00311
   D53        0.00065  -0.00001   0.00000   0.00107   0.00108   0.00173
   D54       -3.14017  -0.00002   0.00000  -0.00121  -0.00124  -3.14142
   D55       -3.14158   0.00002   0.00000   0.00427   0.00428  -3.13730
   D56        0.00077   0.00001   0.00000   0.00199   0.00196   0.00273
   D57        0.00041  -0.00001   0.00000  -0.00719  -0.00717  -0.00676
   D58       -2.09559   0.00063   0.00000  -0.00910  -0.00892  -2.10452
   D59        2.09673  -0.00066   0.00000  -0.00749  -0.00765   2.08908
   D60        3.14122   0.00001   0.00000  -0.00485  -0.00485   3.13637
   D61        1.04522   0.00065   0.00000  -0.00676  -0.00661   1.03862
   D62       -1.04564  -0.00064   0.00000  -0.00515  -0.00533  -1.05097
         Item               Value     Threshold  Converged?
 Maximum Force            0.069326     0.000450     NO 
 RMS     Force            0.012464     0.000300     NO 
 Maximum Displacement     0.703522     0.001800     NO 
 RMS     Displacement     0.180077     0.001200     NO 
 Predicted change in Energy=-2.699282D-02
 GradGradGradGradGradGradGradGradGradGradGradGradGradGradGradGradGradGrad

                          Input orientation:                          
 ---------------------------------------------------------------------
 Center     Atomic      Atomic             Coordinates (Angstroms)
 Number     Number       Type             X           Y           Z
 ---------------------------------------------------------------------
      1          6           0       -1.873596    2.158471    0.127196
      2          6           0       -0.496908    1.498024    0.066653
      3          6           0        0.592536    2.500623   -0.310337
      4          7           0        1.877486    1.848613   -0.392238
      5          6           0        3.039024    2.592798   -0.385872
      6          8           0        2.959101    3.816417   -0.560872
      7          7           0        4.160380    1.861796   -0.184615
      8          6           0        5.411139    2.402634   -0.187445
      9          6           0        5.755327    3.766925   -0.414873
     10          6           0        6.492474    1.521072    0.060601
     11          6           0        7.810652    1.951995    0.085765
     12          6           0        8.120398    3.290974   -0.138191
     13          6           0        7.084402    4.200283   -0.390589
     14          1           0       -2.645968    1.423476    0.396583
     15          1           0       -2.139501    2.592193   -0.847997
     16          1           0       -1.886215    2.960654    0.879458
     17          1           0       -0.515471    0.685048   -0.677103
     18          1           0       -0.261476    1.057903    1.049106
     19          1           0        0.631375    3.310746    0.438054
     20          1           0        0.344122    2.954024   -1.284930
     21          1           0        1.955491    0.886329   -0.080541
     22          1           0        4.978768    4.488209   -0.610296
     23          1           0        6.273623    0.472799    0.237084
     24          1           0        8.609511    1.243534    0.281111
     25         17           0        9.811534    3.777541   -0.088648
     26          6           0        7.392012    5.654610   -0.636390
     27          9           0        6.285203    6.392598   -0.869238
     28          9           0        8.204724    5.823385   -1.710944
     29          9           0        8.019956    6.223466    0.424986
 ---------------------------------------------------------------------
                    Distance matrix (angstroms):
                    1          2          3          4          5
     1  C    0.000000
     2  C    1.528112   0.000000
     3  C    2.527906   1.527814   0.000000
     4  N    3.799532   2.443613   1.443234   0.000000
     5  C    4.958398   3.729092   2.449389   1.379500   0.000000
     6  O    5.155306   4.208650   2.719322   2.251795   1.238651
     7  N    6.049306   4.678226   3.626764   2.292353   1.353628
     8  C    7.295613   5.982299   4.821166   3.582677   2.387983
     9  C    7.815461   6.668600   5.316847   4.326440   2.959344
    10  C    8.390581   6.989423   5.992194   4.648705   3.643385
    11  C    9.686538   8.319977   7.249765   5.953288   4.837511
    12  C   10.061457   8.804238   7.571196   6.412402   5.135091
    13  C    9.202327   8.061485   6.711155   5.713346   4.353058
    14  H    1.099702   2.175516   3.485382   4.611357   5.856507
    15  H    1.099919   2.175294   2.785945   4.110574   5.199104
    16  H    1.099798   2.174882   2.787731   4.125444   5.098466
    17  H    2.159253   1.102019   2.158358   2.676057   4.044597
    18  H    2.158726   1.101975   2.158441   2.697750   3.912591
[...]
 0411,0.00000063,0.00001056,-0.00000411,0.00000813,0.00005161,-0.000022
 41,0.00002172,-0.00075596,-0.00102329,0.00000526,0.06121451,0.35311604
 ,-0.00000044,-0.00000019,0.00000077,-0.00001580,0.00000856,0.00000119,
 0.00001616,0.00001802,0.00009804,0.00002598,0.00000534,0.00007645,-0.0
 0008458,-0.00003979,-0.00109937,-0.00001324,0.00000075,0.00032600,-0.0
 0008691,-0.00025312,-0.00313367,0.00025637,0.00022853,0.00627304,0.000
 06751,0.00017342,0.00521074,0.00300779,0.01256368,-0.03618959,0.000067
 17,0.00107491,0.00229654,0.00033537,0.00023701,0.00726982,0.00004536,-
 0.00004975,-0.00022335,0.00000090,0.00000067,-0.00000113,-0.00000369,-
 0.00000051,-0.00000513,-0.00000082,0.,0.00000067,0.00000254,0.00000186
 ,0.00000288,0.00000513,-0.00000348,-0.00000947,-0.00000339,-0.00000452
 ,0.00000027,0.00000452,-0.00001071,-0.00002129,-0.00000422,0.00001633,
 0.00004682,0.00001611,-0.00005029,-0.00108014,-0.00352623,-0.01375484,
 0.02510598,-0.00000996,-0.00001129,0.00001344,-0.00001840,0.00002336,-
 0.00002714,0.00008331,-0.00008145,0.00005220,-0.00041247,0.00002749,0.
 00004654,0.00024653,-0.00041003,0.00000306,-0.00013977,0.00024123,-0.0
 0001152,-0.00157749,0.00093986,-0.00000001,-0.00213768,-0.00375451,0.0
 0043178,-0.00048333,-0.00088701,0.00001218,-0.01705409,0.02183892,-0.0
 0016877,-0.21732079,0.14452542,0.00025000,0.00463781,-0.00652609,0.000
 15868,0.00103514,-0.00139197,0.00015636,-0.00001663,-0.00000075,0.0000
 0291,0.00000070,0.00000103,-0.00000483,0.00000269,0.00000226,-0.000001
 55,-0.00000114,-0.00000900,0.00000033,0.00000398,0.00000232,0.00000136
 ,0.00001317,0.00001122,-0.00000083,-0.00003307,0.00000089,-0.00003166,
 0.00003043,0.00002652,-0.00002319,0.00004074,0.00009894,-0.00001974,0.
 00095115,-0.00052225,-0.00014975,0.22999056,0.00000247,0.00000373,-0.0
 0000373,0.00000049,-0.00000350,0.00000832,-0.00006464,0.00002049,0.000
 00422,0.00015474,0.00007042,-0.00007459,-0.00060365,0.00023258,0.00000
 368,0.00011284,-0.00016411,0.00001138,0.00046687,0.00031011,-0.0000163
 9,-0.00280493,-0.00024879,0.00038156,-0.00088154,0.00024569,-0.0000188
 2,-0.00834108,0.01079044,-0.00001185,0.14071881,-0.18336561,0.00113738
 ,0.02522748,-0.01612933,-0.00008205,-0.00318389,-0.00543132,0.00044662
 ,0.00000761,0.00000130,-0.00000209,-0.00000026,-0.00000049,0.00000249,
 -0.00000132,-0.00000196,0.00000093,0.00000071,0.00000295,-0.00000082,-
 0.00000162,-0.00000117,-0.00000061,-0.00000734,-0.00000425,0.00000055,
 0.00002089,-0.00000184,0.00001830,-0.00000329,-0.00000759,0.00001246,0
 .00006727,0.00003401,-0.00002235,0.00038126,0.00069610,-0.00020229,-0.
 15300013,0.19260834,0.00000023,-0.00000010,0.00000087,-0.00000360,0.00
 000310,0.00000043,0.00000219,0.00000486,0.00002831,0.00001005,-0.00000
 270,0.00000724,0.00000004,-0.00004198,-0.00047114,0.00000491,0.0000157
 5,0.00007440,0.00000314,-0.00004902,-0.00008573,0.00041364,0.00040553,
 0.00804178,0.00002311,-0.00000794,-0.00094711,0.00090290,-0.00085993,0
 .00376742,0.00036687,0.00105779,-0.03509115,-0.00092948,0.00079737,0.0
 0245617,0.00019671,0.00039931,0.00470525,0.00000047,0.00000042,-0.0000
 0047,-0.00000130,-0.00000047,-0.00000220,-0.00000033,0.00000012,0.0000
 0049,0.00000045,0.00000052,0.00000073,0.00000155,-0.00000108,-0.000003
 24,-0.00000148,-0.00000052,0.00000144,0.00000034,-0.00000213,-0.000007
 73,0.00000152,0.00000124,0.00001309,-0.00001314,-0.00001819,-0.0005062
 0,-0.00018870,-0.00019099,-0.00477175,-0.00061245,-0.00146216,0.024722
 70,-0.00004365,-0.00006092,0.00006181,-0.00004969,0.00007648,-0.000127
 39,0.00072549,-0.00037904,0.00010389,-0.00229434,-0.00058196,0.0007141
 3,0.00472498,-0.00219825,-0.00018964,-0.00155519,0.00151933,-0.0000603
 2,-0.00647889,-0.00037078,0.00010913,0.00420282,0.00281003,-0.00030438
 ,-0.00301761,0.00450134,0.00002213,0.00197703,-0.00279195,0.00017512,-
 0.02780734,-0.00689896,0.00108810,-0.15201859,-0.03265633,0.00507858,-
 0.03060708,-0.01510860,0.00142322,-0.00010280,-0.00001201,0.00002432,0
 .00000342,0.00000572,-0.00003248,0.00001544,0.00002785,-0.00001049,-0.
 00001034,-0.00003734,0.00000848,0.00002542,0.00001095,0.00000731,0.000
 09043,0.00005739,-0.00000462,-0.00024486,0.00001081,-0.00023117,0.0000
 8102,0.00010915,-0.00015627,-0.00091273,-0.00148396,0.00013469,-0.0012
 6295,-0.00026862,0.00005784,0.00171698,0.00032192,-0.00013827,0.215041
 19,-0.00001103,-0.00001735,0.00001487,-0.00001486,0.00002000,-0.000031
 66,0.00018396,-0.00010221,0.00002671,-0.00058646,-0.00008161,0.0001701
 2,0.00126590,-0.00094982,-0.00003049,-0.00014903,0.00069483,-0.0000262
 5,-0.00186200,0.00009600,0.00002170,0.00035453,0.00219193,-0.00012605,
 -0.00105768,-0.00367594,0.00026717,0.00345860,-0.00377762,0.00017686,-
 0.03704141,-0.00769717,0.00140732,-0.03292421,-0.04857121,0.00209731,0
 .01186764,0.00806513,-0.00061219,-0.00002497,-0.00000255,0.00000547,0.
 00000070,0.00000116,-0.00000753,0.00000283,0.00000896,-0.00000230,-0.0
 0000058,-0.00000481,0.00000178,0.00000661,0.00000138,0.00000192,0.0000
 1203,0.00001633,-0.00000009,-0.00006260,0.00000244,-0.00005901,0.00003
 659,0.00003110,-0.00003591,0.00035257,0.00020422,0.00001521,-0.0012588
 1,-0.00028791,0.00006040,-0.00086406,0.00088254,-0.00009819,0.05277829
 ,0.05818081,0.00000012,0.00000081,-0.00000294,-0.00000196,0.00000476,0
 .00000220,-0.00001397,0.00002319,0.00000083,0.00008288,0.00003729,0.00
 010974,-0.00019984,0.00006045,-0.00027335,0.00008939,-0.00006936,-0.00
 004727,0.00023533,-0.00001350,-0.00033576,-0.00016687,-0.00018382,-0.0
 0089179,0.00023606,0.00011359,0.00340077,-0.00003047,0.00035272,0.0042
 8197,0.00210557,0.00051722,0.00173732,0.00508502,0.00209071,-0.0148028
 8,0.00048012,0.00018039,0.00013734,0.00000319,0.00000044,-0.00000096,-
 0.00000003,0.00000019,0.00000184,-0.00000071,-0.00000110,0.00000033,0.
 00000138,0.00000217,-0.00000096,-0.00000023,0.00000016,0.00000012,-0.0
 0000726,-0.00000918,0.00000169,0.00001100,-0.00000946,0.00000569,0.000
 00711,0.00000155,0.00002118,0.00002304,0.00009312,0.00117758,0.0000907
 4,0.00003553,0.00048420,-0.00009469,-0.00013130,-0.00268037,-0.0077001
 8,-0.00315097,0.01050275,0.00002218,0.00000106,-0.00004190,-0.00001760
 ,-0.00003406,0.00005549,-0.00040268,0.00008312,-0.00009187,0.00096872,
 0.00101711,-0.00037866,0.00008724,-0.00430689,0.00038222,0.00103811,0.
 00346709,-0.00019607,-0.00082621,-0.00028528,0.00000140,-0.00693944,-0
 .00156859,0.00049596,0.00004810,-0.02868716,0.00101365,-0.00279011,0.0
 0097668,0.00000422,-0.00457732,0.00621867,0.00005394,0.01889101,0.0263
 7989,-0.00148977,-0.09478109,-0.01774687,0.00138891,0.00008273,0.00002
 467,-0.00003116,-0.00000647,-0.00000502,0.00003251,-0.00002965,0.00000
 679,0.00001380,0.00002660,0.00007203,-0.00000764,-0.00001128,-0.000023
 10,-0.00000181,-0.00014995,-0.00003270,0.00001240,0.00010145,-0.000000
 48,0.00010344,0.00008682,0.00003217,0.00012274,-0.00359565,-0.00144123
 ,0.00003143,-0.00034876,0.00028388,-0.00001301,0.00028064,0.00191168,-
 0.00004372,-0.00597204,-0.00191647,0.00020881,0.54994259,0.00007474,0.
 00015094,-0.00010519,0.00011816,-0.00011982,0.00023754,-0.00125267,0.0
 0076105,-0.00023039,0.00390849,0.00033516,-0.00100104,-0.00907792,0.00
 547001,0.00016434,0.00310828,-0.00458425,0.00017859,0.00989161,0.00029
 318,-0.00015289,-0.00547678,-0.00226537,0.00054249,-0.01767782,-0.0073
 2767,0.00078771,-0.00029686,0.00224050,-0.00008079,0.00347892,0.003269
 13,-0.00006099,0.01346092,-0.02275928,0.00029135,-0.02161197,-0.213325
 28,0.00558331,0.00016872,0.00000892,-0.00002803,-0.00000290,-0.0000059
 9,0.00004663,-0.00000859,-0.00008855,0.00001195,0.00000248,-0.00000260
 ,-0.00001768,-0.00004508,0.00000127,-0.00001966,-0.00008522,-0.0001101
 5,-0.00000795,0.00042091,-0.00001215,0.00038893,-0.00032523,-0.0002125
 4,0.00021803,0.00187349,0.00093881,-0.00020338,-0.00008549,0.00019876,
 -0.00003434,-0.00042097,0.00075826,0.00002401,-0.00570247,-0.00347662,
 0.00010086,-0.00321236,0.62724777,0.00000430,0.00000002,0.00000927,-0.
 00001420,0.00000659,0.00001661,0.00012024,-0.00001435,0.00016447,-0.00
 016166,-0.00001179,-0.00013011,0.00030749,-0.00015695,0.00030581,-0.00
 017428,0.00009963,-0.00050525,-0.00037502,-0.00004021,-0.00089268,0.00
 062114,0.00041838,0.00771280,0.00065565,0.00115891,0.00135165,0.000044
 99,-0.00012061,-0.00097814,0.00016473,-0.00012997,0.00439736,-0.001073
 63,-0.00009298,-0.00241041,0.00154675,0.00554223,-0.06744463,0.0000020
 3,0.00000732,-0.00000306,-0.00001226,-0.00001372,-0.00002761,-0.000000
 88,0.00000180,0.00001561,0.00000050,-0.00000115,-0.00000249,0.00001353
 ,0.00000318,-0.00004514,0.00000973,0.00000585,0.00003892,-0.00005729,-
 0.00003047,-0.00010039,-0.00000393,0.00000854,0.00005566,-0.00002410,-
 0.00014225,-0.00365488,-0.00000524,-0.00003603,-0.00054183,0.00003806,
 -0.00004337,0.00114489,0.00033955,-0.00000939,-0.00312323,-0.00154462,
 -0.00399340,0.50151289,0.00000218,0.00002555,0.00000266,0.00002552,-0.
 00000509,0.00001223,-0.00004228,0.00009707,0.00001986,0.00022606,-0.00
 035757,-0.00003517,-0.00150954,0.00292915,-0.00013499,0.00002042,-0.00
 222656,0.00010944,0.00222797,-0.00034164,-0.00000646,0.00058724,-0.001
 15934,0.00002882,-0.00443001,-0.00301352,0.00025389,-0.00014377,-0.000
 45320,0.00002355,-0.00021290,0.00043493,-0.00001472,0.00245492,0.00001
 876,-0.00002410,-0.00968667,0.01003645,0.00011889,-0.00000900,-0.00000
 963,0.00000904,0.00000274,0.00000095,-0.00000682,0.00001206,-0.0000177
 8,-0.00000422,-0.00001152,-0.00003228,0.00000045,-0.00000316,0.0000106
 1,-0.00000207,0.00005217,-0.00000227,-0.00000772,0.00003035,-0.0000047
 9,0.00002063,-0.00007307,-0.00004486,-0.00001355,0.00240480,-0.0023242
 9,0.00001219,0.00020661,-0.00013000,-0.00000518,0.00008095,0.00025515,
 -0.00001771,0.00103951,0.00053368,-0.00004463,-0.20341950,0.10890611,-
 0.00025939,0.32737054,-0.00002418,-0.00005892,0.00003161,-0.00004611,0
 .00003991,-0.00007970,0.00041197,-0.00028610,0.00005968,-0.00134178,0.
 00000891,0.00034293,0.00359001,-0.00282660,-0.00001214,-0.00116704,0.0
 0238188,-0.00009543,-0.00436558,0.00011703,0.00005864,0.00378341,0.001
 95706,-0.00018832,0.00057811,-0.00329944,0.00012001,-0.00046550,-0.000
 07298,0.00001306,0.00293973,-0.00136172,-0.00005752,-0.00877529,-0.006
 40490,0.00055593,0.04319051,-0.02743549,0.00008601,-0.00004872,0.00000
 148,0.00000473,-0.00000041,0.00000170,-0.00001161,-0.00000229,0.000034
 99,-0.00000186,0.00000269,0.00001318,0.00000562,0.00001551,-0.00000507
 ,0.00000701,0.00001122,0.00003431,0.00000676,-0.00014715,0.00000570,-0
 .00013201,0.00011958,0.00008167,-0.00006660,0.00005390,-0.00508160,0.0
 0016664,-0.00001372,-0.00015989,0.00000838,-0.00011001,-0.00091569,0.0
 0002346,0.00054245,0.00054703,-0.00002810,0.09601857,-0.16843837,0.000
 68177,-0.14789103,0.17881617,-0.00000102,-0.00000028,-0.00000155,0.000
 00397,-0.00000314,-0.00000363,-0.00002800,0.00000525,-0.00003414,0.000
 03944,-0.00000599,0.00001633,-0.00008376,0.00005298,-0.00001003,0.0000
 4470,-0.00003562,0.00017757,0.00010238,0.00000540,0.00006814,-0.000144
 78,-0.00003085,0.00017150,0.00010824,0.00021329,0.00044978,0.00002518,
 0.00001288,0.00002318,-0.00011464,0.00001893,-0.00035206,0.00029716,0.
 00029700,0.00194899,-0.00101606,0.00095834,0.00814838,-0.00000022,-0.0
 0000161,0.00000074,0.00000268,0.00000330,0.00000617,0.00000005,-0.0000
 0048,-0.00000378,-0.00000009,0.00000012,0.00000105,-0.00000347,-0.0000
 0104,0.00001010,-0.00000089,0.00000007,-0.00001117,0.00001289,0.000008
 76,0.00002341,-0.00000157,-0.00000168,-0.00001737,-0.00007456,0.000229
 40,-0.00042690,-0.00000564,0.00000841,-0.00001761,-0.00000610,0.000015
 67,-0.00027192,-0.00003877,-0.00002666,0.00023611,0.00017221,0.0003433
 5,-0.07279526,-0.00147599,0.00056145,0.08077173,-0.00001057,-0.0000106
 7,0.00002066,-0.00000686,0.00001933,-0.00003058,0.00020398,-0.00007483
 ,0.00006880,-0.00053746,-0.00024489,0.00011825,0.00065910,0.00074575,-
 0.00009394,-0.00048459,-0.00051606,-0.00005471,-0.00023695,-0.00039619
 ,0.00011063,0.00046279,0.00019832,-0.00124036,0.00165954,-0.00090593,0
 .00025240,0.00055584,-0.00053092,0.00013697,0.00015376,-0.00117126,-0.
 00079435,-0.00563863,-0.00125389,0.00065754,-0.00248803,-0.01080407,0.
 01780525,-0.00003403,-0.00000630,0.00000999,0.00000049,-0.00000007,-0.
 00001584,0.00000828,0.00000494,-0.00000263,-0.00000683,-0.00001841,0.0
 0000310,0.00000742,0.00000588,-0.00000324,0.00004373,0.00001867,0.0000
 0150,-0.00006079,-0.00000390,-0.00006685,0.00001972,0.00001206,-0.0000
 2475,0.00065532,0.00050790,0.00065818,0.00012443,-0.00008344,0.0001162
 1,0.00004076,-0.00037542,-0.00005539,0.00123343,0.00347168,-0.00132768
 ,-0.11981156,-0.03579400,0.07780452,-0.05631782,0.00798665,0.04926985,
 0.16226566,-0.00002186,-0.00004044,0.00003378,-0.00003287,0.00003639,-
 0.00006749,0.00037994,-0.00020868,0.00009692,-0.00113893,-0.00014732,0
 .00025669,0.00245173,-0.00108222,-0.00005546,-0.00092187,0.00097217,-0
 .00012517,-0.00246724,-0.00042841,0.00011845,0.00077907,0.00028576,-0.
 00211166,0.00373398,-0.00406035,0.00154748,-0.00037368,-0.00051339,0.0
 0024568,-0.00039010,-0.00019308,-0.00068035,-0.00361375,0.00103700,-0.
 00021171,-0.02476550,-0.01134894,0.03324605,-0.00005257,-0.00000387,0.
 00000995,0.00000007,0.00000018,-0.00001869,0.00000500,0.00002355,-0.00
 000259,-0.00000274,-0.00000519,0.00000534,0.00001374,0.00000188,0.0000
 0065,0.00003654,0.00003483,0.00000472,-0.00012509,-0.00000224,-0.00012
 326,0.00009553,0.00005881,-0.00004927,0.00012735,0.00009048,0.00094932
 ,0.00004364,-0.00008775,0.00006673,0.00012042,-0.00018412,-0.00004322,
 0.00291340,-0.00116129,0.00128127,-0.03450548,-0.10546976,0.05428158,0
 .01827073,0.01523346,-0.01828922,0.03475774,0.09145555,0.00001127,0.00
 001640,-0.00002526,0.00001945,-0.00002410,0.00003390,-0.00025782,0.000
 10624,-0.00012025,0.00069568,0.00019110,-0.00010367,-0.00118937,-0.000
 07631,-0.00000036,0.00059839,0.00001365,0.00024466,0.00100377,0.000570
 95,0.00005720,0.00006259,-0.00034844,0.00071293,-0.00187112,0.00351066
 ,-0.00058726,-0.00009046,0.00023498,-0.00006924,-0.00014243,0.00070105
 ,0.00037822,0.00327019,-0.00053249,0.00082646,0.01479669,0.00865905,-0
 .00983621,0.00003334,0.00000234,-0.00000699,0.00000346,0.00000450,0.00
 002272,-0.00000596,-0.00000925,-0.00000235,0.00000427,0.00001292,-0.00
 000295,-0.00001216,-0.00000513,0.00001528,-0.00003858,-0.00002234,-0.0
 0001199,0.00008792,0.00001250,0.00010510,-0.00003933,-0.00002717,0.000
 00648,-0.00054755,-0.00033930,-0.00053299,-0.00008195,0.00009488,-0.00
 005660,-0.00009545,0.00021731,-0.00006461,-0.00236961,0.00004940,0.000
 07403,0.07628556,0.05830884,-0.19026060,0.03943202,-0.01046664,-0.0104
 6204,-0.13355398,-0.06199285,0.29512460,-0.00001361,-0.00001390,0.0000
 2043,-0.00000638,0.00002022,-0.00004042,0.00019686,-0.00008220,0.00004
 378,-0.00057158,-0.00027459,0.00017878,0.00072240,0.00077019,-0.000106
 79,-0.00051014,-0.00052545,0.00011979,-0.00028968,-0.00043740,-0.00008
 418,0.00052824,0.00030895,0.00120898,0.00171958,-0.00108604,-0.0002845
 8,0.00055645,-0.00054438,-0.00013076,0.00021079,-0.00115413,0.00087287
 ,-0.00581011,-0.00126958,-0.00019981,-0.00413714,-0.01247949,-0.017208
 85,-0.00003877,-0.00000872,0.00001165,0.00000387,0.00000368,-0.0000095
 9,0.00000918,0.00000570,-0.00000698,-0.00000684,-0.00001960,0.00000358
 ,0.00000469,0.00000636,0.00000842,0.00004580,0.00002173,-0.00000819,-0
 .00005191,0.00000392,-0.00004664,0.00002168,0.00002017,-0.00006427,0.0
 0065133,0.00047391,-0.00075129,0.00012044,-0.00009699,-0.00011770,0.00
 004930,-0.00038109,0.00007745,0.00150097,0.00344857,0.00092877,-0.1278
 9687,-0.04433652,-0.07796671,-0.06088480,0.00515452,-0.04708319,0.0175
 3985,0.00468279,0.00399116,0.17633639,-0.00002445,-0.00004298,0.000034
 31,-0.00003221,0.00003627,-0.00007634,0.00037785,-0.00021909,0.0000751
 4,-0.00117803,-0.00018029,0.00030863,0.00252784,-0.00105244,-0.0001009
 9,-0.00095586,0.00096457,0.00005582,-0.00252759,-0.00048182,-0.0000246
 9,0.00089062,0.00045720,0.00208133,0.00375983,-0.00434928,-0.00149210,
 -0.00037224,-0.00053831,-0.00020781,-0.00033535,-0.00019694,0.00074423
 ,-0.00380393,0.00107596,0.00041691,-0.02748044,-0.01422406,-0.03150067
 ,-0.00005765,-0.00000627,0.00001167,0.00000298,0.00000381,-0.00001353,
 0.00000590,0.00002450,-0.00000687,-0.00000376,-0.00000650,0.00000616,0
 .00001186,0.00000184,0.00001134,0.00003858,0.00003745,-0.00000393,-0.0
 0012042,0.00000513,-0.00010799,0.00009613,0.00006547,-0.00008281,0.000
 12298,0.00004195,-0.00099650,0.00004394,-0.00009791,-0.00006074,0.0001
 2964,-0.00019720,0.00004515,0.00286609,-0.00113774,-0.00129963,-0.0427
 2773,-0.11347539,-0.05737917,0.01649470,0.01707228,0.01566198,0.004461
 35,0.01570700,0.00113725,0.04778937,0.10071280,-0.00001538,-0.00001797
 ,0.00001791,-0.00000847,0.00001603,-0.00004935,0.00017148,-0.00009122,
 0.00000372,-0.00058894,-0.00020947,0.00021154,0.00098920,0.00017372,-0
 .00014942,-0.00049276,-0.00007884,0.00023245,-0.00079929,-0.00051974,0
 .00012997,-0.00012236,0.00034114,0.00046357,0.00148692,-0.00318792,-0.
 00032770,0.00008520,-0.00017284,-0.00003586,0.00017198,-0.00059999,0.0
 0031954,-0.00264017,0.00059360,0.00095942,-0.01321742,-0.00771019,-0.0
 0534893,-0.00003593,-0.00000816,0.00000953,0.00000603,0.00000670,-0.00
 000035,0.00000659,0.00000819,-0.00000984,-0.00000534,-0.00001246,0.000
 00427,0.00000249,0.00000396,0.00002003,0.00003262,0.00002025,-0.000015
 94,-0.00004546,0.00001048,-0.00002797,0.00003565,0.00002900,-0.0000725
 2,0.00047420,0.00027651,-0.00047366,0.00006782,-0.00008702,-0.00004248
 ,0.00008077,-0.00018846,-0.00006159,0.00201527,-0.00009953,-0.00001618
 ,-0.07653845,-0.06129220,-0.17381026,-0.03799098,0.00840623,-0.0076457
 3,-0.00976956,-0.00837364,-0.08545819,0.13664429,0.07276384,0.27117402
 \\-0.00000018,-0.00000078,0.00000105,0.00000013,-0.00000181,0.00000043
 ,-0.00000053,-0.00000188,0.00000009,-0.00000173,0.00000045,-0.00000044
 ,0.00000112,-0.00000082,-0.00000058,0.00000177,0.00000388,0.00000102,-
 0.00000071,-0.00000440,-0.00000153,0.00000112,0.00000315,-0.00000039,-
 0.00000049,-0.00000017,0.00000015,-0.00000030,0.00000039,-0.00000202,0
 .00000017,0.00000080,-0.00000225,-0.00000035,0.00000065,-0.00000103,-0
 .00000014,0.00000070,-0.00000004,0.00000050,-0.00000135,0.00000105,-0.
 00000008,-0.00000013,0.00000112,-0.00000010,-0.00000096,0.00000199,0.0
 0000035,-0.00000106,-0.00000058,0.00000032,-0.00000189,0.00000030,0.00
 000194,-0.00000053,0.00000192,-0.00000062,0.00000050,0.00000034,0.0000
 0020,-0.00000002,-0.00000076,-0.00000079,0.00000044,0.00000098,0.00000
 040,0.00000031,-0.00000276,0.00000023,0.00000073,-0.00000288,-0.000000
 21,0.00000101,-0.00000116,0.00000013,-0.00000020,0.00000126,-0.0000014
 1,0.00000103,0.00000218,-0.00000055,0.00000177,0.00000086,-0.00000021,
 0.00000019,0.00000169\\\@


 IT IS NOT EASY TO DESCRIBE
     THE SEA WITH THE MOUTH

                   -- KOKYU
 Job cpu time:       0 days  2 hours 47 minutes 15.3 seconds.
 File lengths (MBytes):  RWF=    437 Int=      0 D2E=      0 Chk=     11 Scr=      1
 Normal termination of Gaussian 09 at Wed Feb 27 12:48:41 2019.
WARNING: pbs_rusage is deprecated and values produced may not be accurate


=============================================================================
                                     Resource usage:
                                       CPU time:              11:37:29
   JobId:    6207856.r-man2            Elapsed time:          02:56:11
   Project:             q95            Requested time:        36:00:00
   Service Units:     11.75 
                                       Max physical memory:      658MB
                                       Max virtual memory:      1837MB
                                       Requested memory:           0MB

                                       Number of cpus:               4

                                       Max jobfs disk use:       0.8GB
                                       Requested jobfs:         16.0GB
=============================================================================

