 Entering Gaussian System, Link 0=/apps/gaussian/g09e01/g09/g09
 AtFile(1): /home/507/hio507/Basis/6-31pGd.gbs
 Initial command:
 /apps/gaussian/g09e01/g09/l1.exe "/jobfs/local/6207839.r-man2/Gau-53949.inp" -scrdir="/jobfs/local/6207839.r-man2/"
 Entering Link 1 = /apps/gaussian/g09e01/g09/l1.exe PID=     53950.
  
 Copyright (c) 1988,1990,1992,1993,1995,1998,2003,2009,2015,
            Gaussian, Inc.  All Rights Reserved.
  
 This is part of the Gaussian(R) 09 program.  It is based on
 the Gaussian(R) 03 system (copyright 2003, Gaussian, Inc.),
 the Gaussian(R) 98 system (copyright 1998, Gaussian, Inc.),
 the Gaussian(R) 94 system (copyright 1995, Gaussian, Inc.),
 the Gaussian 92(TM) system (copyright 1992, Gaussian, Inc.),
 the Gaussian 90(TM) system (copyright 1990, Gaussian, Inc.),
 the Gaussian 88(TM) system (copyright 1988, Gaussian, Inc.),
 the Gaussian 86(TM) system (copyright 1986, Carnegie Mellon
 University), and the Gaussian 82(TM) system (copyright 1983,
 Carnegie Mellon University). Gaussian is a federally registered
 trademark of Gaussian, Inc.
  
 This software contains proprietary and confidential information,
 including trade secrets, belonging to Gaussian, Inc.
  
 This software is provided under written license and may be
 used, copied, transmitted, or stored only in accord with that
 written license.
  
 The following legend is applicable only to US Government
 contracts under FAR:
  
                    RESTRICTED RIGHTS LEGEND
  
 Use, reproduction and disclosure by the US Government is
 subject to restrictions as set forth in subparagraphs (a)
 and (c) of the Commercial Computer Software - Restricted
 Rights clause in FAR 52.227-19.
  
 Gaussian, Inc.
 340 Quinnipiac St., Bldg. 40, Wallingford CT 06492
  
  
 ---------------------------------------------------------------
 Warning -- This program may not be used in any manner that
 competes with the business of Gaussian, Inc. or will provide
 assistance to any competitor of Gaussian, Inc.  The licensee
 of this program is prohibited from giving any competitor of
 Gaussian, Inc. access to this program.  By using this program,
 the user acknowledges that Gaussian, Inc. is engaged in the
 business of creating and licensing software in the field of
 computational chemistry and represents and warrants to the
 licensee that it is not a competitor of Gaussian, Inc. and that
 it will not use this program in any manner prohibited above.
 ---------------------------------------------------------------
  

 Cite this work as:
 Gaussian 09, Revision E.01,
 M. J. Frisch, G. W. Trucks, H. B. Schlegel, G. E. Scuseria, 
 M. A. Robb, J. R. Cheeseman, G. Scalmani, V. Barone, B. Mennucci, 
 G. A. Petersson, H. Nakatsuji, M. Caricato, X. Li, H. P. Hratchian, 
 A. F. Izmaylov, J. Bloino, G. Zheng, J. L. Sonnenberg, M. Hada, 
 M. Ehara, K. Toyota, R. Fukuda, J. Hasegawa, M. Ishida, T. Nakajima, 
 Y. Honda, O. Kitao, H. Nakai, T. Vreven, J. A. Montgomery, Jr., 
 J. E. Peralta, F. Ogliaro, M. Bearpark, J. J. Heyd, E. Brothers, 
 K. N. Kudin, V. N. Staroverov, T. Keith, R. Kobayashi, J. Normand, 
 K. Raghavachari, A. Rendell, J. C. Burant, S. S. Iyengar, J. Tomasi, 
 M. Cossi, N. Rega, J. M. Millam, M. Klene, J. E. Knox, J. B. Cross, 
 V. Bakken, C. Adamo, J. Jaramillo, R. Gomperts, R. E. Stratmann, 
 O. Yazyev, A. J. Austin, R. Cammi, C. Pomelli, J. W. Ochterski, 
 R. L. Martin, K. Morokuma, V. G. Zakrzewski, G. A. Voth, 
 P. Salvador, J. J. Dannenberg, S. Dapprich, A. D. Daniels, 
 O. Farkas, J. B. Foresman, J. V. Ortiz, J. Cioslowski, 
 and D. J. Fox, Gaussian, Inc., Wallingford CT, 2013.
 
 ******************************************
 Gaussian 09:  ES64L-G09RevE.01 30-Nov-2015
                27-Feb-2019 
 ******************************************
 %chk=3TFM4Chloro_a1.M062X_6-31pGd_opt_water.chk
 %mem=196608000
 %nproc=4
 Will use up to    4 processors via shared memory.
 ----------------------------------------------------------------------
 # M062X/Gen 6D SCF=Tight INT(grid=ultrafine) OPT=CalcFC IOP(2/17=4) SC
 RF=(SMD,Solvent=h2o) maxdisk=2147483648
 ----------------------------------------------------------------------
 1/10=4,14=-1,18=20,19=15,26=4,38=1/1,3;
 2/9=110,12=2,17=4,18=5,40=1/2;
 3/5=7,8=2,11=2,16=1,25=1,30=1,70=32201,71=2,72=1,74=-55,75=-5,140=1/1,2,3;
 4//1;
 5/5=2,32=2,38=5,53=1/2;
 8/6=4,10=90,11=11/1;
 11/6=1,8=1,9=11,15=111,16=1/1,2,10;
 10/6=1,13=1/2;
 6/7=2,8=2,9=2,10=2,28=1/1;
 7/10=1,18=20,25=1/1,2,3,16;
 1/10=4,14=-1,18=20,19=15,26=4/3(2);
 2/9=110,17=4/2;
 99//99;
 2/9=110,17=4/2;
 3/5=7,6=1,8=2,11=2,16=1,25=1,30=1,70=32205,71=1,72=1,74=-55,75=-5,82=7/1,2,3;
 4/5=5,16=3,69=1/1;
 5/5=2,32=2,38=5,53=1/2;
 7//1,2,3,16;
 1/14=-1,18=20,19=15,26=4/3(-5);
 2/9=110,17=4/2;
 6/7=2,8=2,9=2,10=2,19=2,28=1/1;
 99/9=1/99;
 --------------------------------------
 3TFM4Chloro_a1.M062X_6-31pGd_opt_water
 --------------------------------------
 Symbolic Z-matrix:
 Charge = -1 Multiplicity = 1
 C                    -1.97352   2.15591  -0.08665 
 C                    -0.61057   1.47905   0.02572 
 C                     0.52777   2.49435  -0.12759 
 N                     1.82295   1.84516  -0.01995 
 C                     2.98899   2.5429   -0.1301 
 O                     2.94608   3.74708  -0.3245 
 N                     4.18252   1.88041  -0.01988 
 C                     5.51424   2.42235  -0.10987 
 C                     5.81465   3.78466  -0.35717 
 C                     6.58885   1.53178   0.05767 
 C                     7.90925   1.96903  -0.01485 
 C                     8.19863   3.31099  -0.2583 
 C                     7.14968   4.23819  -0.43342 
 H                    -2.77633   1.39719   0.02635 
 H                    -2.08202   2.64337  -1.07898 
 H                    -2.09175   2.92044   0.71058 
 H                    -0.5258    0.70533  -0.76829 
 H                    -0.53467   0.98327   1.01798 
 H                     0.43864   3.26762   0.66725 
 H                     0.44619   2.98614  -1.12213 
 H                     1.86066   0.82654   0.14315 
 H                     5.04149   4.51331  -0.49616 
 H                     6.40354   0.48178   0.24796 
 H                     8.71312   1.25604   0.1194 
 Cl                    9.89316   3.78785  -0.33698 
 C                     7.45655   5.6986   -0.70029 
 F                     6.30689   6.45616  -0.84519 
 F                     8.19576   5.81192  -1.86392 
 F                     8.18515   6.21972   0.35364 
 

 GradGradGradGradGradGradGradGradGradGradGradGradGradGradGradGradGradGrad
 Berny optimization.
 Initialization pass.
                           ----------------------------
                           !    Initial Parameters    !
                           ! (Angstroms and Degrees)  !
 --------------------------                            --------------------------
 ! Name  Definition              Value          Derivative Info.                !
 --------------------------------------------------------------------------------
 ! R1    R(1,2)                  1.5259         calculate D2E/DX2 analytically  !
 ! R2    R(1,14)                 1.1104         calculate D2E/DX2 analytically  !
 ! R3    R(1,15)                 1.1109         calculate D2E/DX2 analytically  !
 ! R4    R(1,16)                 1.1109         calculate D2E/DX2 analytically  !
 ! R5    R(2,3)                  1.533          calculate D2E/DX2 analytically  !
 ! R6    R(2,17)                 1.1119         calculate D2E/DX2 analytically  !
 ! R7    R(2,18)                 1.1118         calculate D2E/DX2 analytically  !
 ! R8    R(3,4)                  1.4528         calculate D2E/DX2 analytically  !
 ! R9    R(3,19)                 1.1125         calculate D2E/DX2 analytically  !
 ! R10   R(3,20)                 1.1125         calculate D2E/DX2 analytically  !
 ! R11   R(4,5)                  1.3633         calculate D2E/DX2 analytically  !
 ! R12   R(4,21)                 1.0323         calculate D2E/DX2 analytically  !
 ! R13   R(5,6)                  1.2205         calculate D2E/DX2 analytically  !
 ! R14   R(5,7)                  1.3695         calculate D2E/DX2 analytically  !
 ! R15   R(7,8)                  1.4406         calculate D2E/DX2 analytically  !
 ! R16   R(8,9)                  1.4168         calculate D2E/DX2 analytically  !
 ! R17   R(8,10)                 1.4057         calculate D2E/DX2 analytically  !
 ! R18   R(9,13)                 1.412          calculate D2E/DX2 analytically  !
 ! R19   R(9,22)                 1.0715         calculate D2E/DX2 analytically  !
 ! R20   R(10,11)                1.3928         calculate D2E/DX2 analytically  !
 ! R21   R(10,23)                1.0831         calculate D2E/DX2 analytically  !
 ! R22   R(11,12)                1.3942         calculate D2E/DX2 analytically  !
 ! R23   R(11,24)                1.0829         calculate D2E/DX2 analytically  !
 ! R24   R(12,13)                1.4109         calculate D2E/DX2 analytically  !
 ! R25   R(12,25)                1.7621         calculate D2E/DX2 analytically  !
 ! R26   R(13,26)                1.516          calculate D2E/DX2 analytically  !
 ! R27   R(26,27)                1.3844         calculate D2E/DX2 analytically  !
 ! R28   R(26,28)                1.3832         calculate D2E/DX2 analytically  !
 ! R29   R(26,29)                1.3832         calculate D2E/DX2 analytically  !
 ! A1    A(2,1,14)             109.5849         calculate D2E/DX2 analytically  !
 ! A2    A(2,1,15)             110.3442         calculate D2E/DX2 analytically  !
 ! A3    A(2,1,16)             110.334          calculate D2E/DX2 analytically  !
 ! A4    A(14,1,15)            108.6702         calculate D2E/DX2 analytically  !
 ! A5    A(14,1,16)            108.6797         calculate D2E/DX2 analytically  !
 ! A6    A(15,1,16)            109.1882         calculate D2E/DX2 analytically  !
 ! A7    A(1,2,3)              111.2296         calculate D2E/DX2 analytically  !
 ! A8    A(1,2,17)             108.9159         calculate D2E/DX2 analytically  !
 ! A9    A(1,2,18)             108.9352         calculate D2E/DX2 analytically  !
 ! A10   A(3,2,17)             109.441          calculate D2E/DX2 analytically  !
 ! A11   A(3,2,18)             109.5048         calculate D2E/DX2 analytically  !
 ! A12   A(17,2,18)            108.773          calculate D2E/DX2 analytically  !
 ! A13   A(2,3,4)              111.0166         calculate D2E/DX2 analytically  !
 ! A14   A(2,3,19)             109.2322         calculate D2E/DX2 analytically  !
 ! A15   A(2,3,20)             109.1307         calculate D2E/DX2 analytically  !
 ! A16   A(4,3,19)             109.2138         calculate D2E/DX2 analytically  !
 ! A17   A(4,3,20)             109.2177         calculate D2E/DX2 analytically  !
 ! A18   A(19,3,20)            109.0003         calculate D2E/DX2 analytically  !
 ! A19   A(3,4,5)              121.8591         calculate D2E/DX2 analytically  !
 ! A20   A(3,4,21)             119.0272         calculate D2E/DX2 analytically  !
 ! A21   A(5,4,21)             119.1137         calculate D2E/DX2 analytically  !
 ! A22   A(4,5,6)              119.1923         calculate D2E/DX2 analytically  !
 ! A23   A(4,5,7)              119.427          calculate D2E/DX2 analytically  !
 ! A24   A(6,5,7)              121.3807         calculate D2E/DX2 analytically  !
 ! A25   A(5,7,8)              128.2165         calculate D2E/DX2 analytically  !
 ! A26   A(7,8,9)              124.6559         calculate D2E/DX2 analytically  !
 ! A27   A(7,8,10)             117.4464         calculate D2E/DX2 analytically  !
 ! A28   A(9,8,10)             117.8976         calculate D2E/DX2 analytically  !
 ! A29   A(8,9,13)             121.2478         calculate D2E/DX2 analytically  !
 ! A30   A(8,9,22)             121.5702         calculate D2E/DX2 analytically  !
 ! A31   A(13,9,22)            117.1819         calculate D2E/DX2 analytically  !
 ! A32   A(8,10,11)            121.3076         calculate D2E/DX2 analytically  !
 ! A33   A(8,10,23)            120.2876         calculate D2E/DX2 analytically  !
 ! A34   A(11,10,23)           118.4048         calculate D2E/DX2 analytically  !
 ! A35   A(10,11,12)           120.5323         calculate D2E/DX2 analytically  !
 ! A36   A(10,11,24)           119.3805         calculate D2E/DX2 analytically  !
 ! A37   A(12,11,24)           120.0872         calculate D2E/DX2 analytically  !
 ! A38   A(11,12,13)           119.993          calculate D2E/DX2 analytically  !
 ! A39   A(11,12,25)           117.896          calculate D2E/DX2 analytically  !
 ! A40   A(13,12,25)           122.1111         calculate D2E/DX2 analytically  !
 ! A41   A(9,13,12)            119.0217         calculate D2E/DX2 analytically  !
 ! A42   A(9,13,26)            120.6846         calculate D2E/DX2 analytically  !
 ! A43   A(12,13,26)           120.2937         calculate D2E/DX2 analytically  !
 ! A44   A(13,26,27)           112.1773         calculate D2E/DX2 analytically  !
 ! A45   A(13,26,28)           109.5841         calculate D2E/DX2 analytically  !
 ! A46   A(13,26,29)           109.5992         calculate D2E/DX2 analytically  !
 ! A47   A(27,26,28)           108.1142         calculate D2E/DX2 analytically  !
 ! A48   A(27,26,29)           108.1209         calculate D2E/DX2 analytically  !
 ! A49   A(28,26,29)           109.1854         calculate D2E/DX2 analytically  !
 ! D1    D(14,1,2,3)           179.9028         calculate D2E/DX2 analytically  !
 ! D2    D(14,1,2,17)           59.2007         calculate D2E/DX2 analytically  !
 ! D3    D(14,1,2,18)          -59.303          calculate D2E/DX2 analytically  !
 ! D4    D(15,1,2,3)            60.2789         calculate D2E/DX2 analytically  !
 ! D5    D(15,1,2,17)          -60.4232         calculate D2E/DX2 analytically  !
 ! D6    D(15,1,2,18)         -178.9269         calculate D2E/DX2 analytically  !
 ! D7    D(16,1,2,3)           -60.4678         calculate D2E/DX2 analytically  !
 ! D8    D(16,1,2,17)          178.8301         calculate D2E/DX2 analytically  !
 ! D9    D(16,1,2,18)           60.3263         calculate D2E/DX2 analytically  !
 ! D10   D(1,2,3,4)           -179.9967         calculate D2E/DX2 analytically  !
 ! D11   D(1,2,3,19)            59.5113         calculate D2E/DX2 analytically  !
 ! D12   D(1,2,3,20)           -59.5659         calculate D2E/DX2 analytically  !
 ! D13   D(17,2,3,4)           -59.604          calculate D2E/DX2 analytically  !
 ! D14   D(17,2,3,19)          179.904          calculate D2E/DX2 analytically  !
 ! D15   D(17,2,3,20)           60.8268         calculate D2E/DX2 analytically  !
 ! D16   D(18,2,3,4)            59.5446         calculate D2E/DX2 analytically  !
 ! D17   D(18,2,3,19)          -60.9474         calculate D2E/DX2 analytically  !
 ! D18   D(18,2,3,20)          179.9754         calculate D2E/DX2 analytically  !
 ! D19   D(2,3,4,5)            179.6766         calculate D2E/DX2 analytically  !
 ! D20   D(2,3,4,21)            -0.231          calculate D2E/DX2 analytically  !
 ! D21   D(19,3,4,5)           -59.8205         calculate D2E/DX2 analytically  !
 ! D22   D(19,3,4,21)          120.2719         calculate D2E/DX2 analytically  !
 ! D23   D(20,3,4,5)            59.2973         calculate D2E/DX2 analytically  !
 ! D24   D(20,3,4,21)         -120.6103         calculate D2E/DX2 analytically  !
 ! D25   D(3,4,5,6)              0.008          calculate D2E/DX2 analytically  !
 ! D26   D(3,4,5,7)            179.9691         calculate D2E/DX2 analytically  !
 ! D27   D(21,4,5,6)           179.9155         calculate D2E/DX2 analytically  !
 ! D28   D(21,4,5,7)            -0.1234         calculate D2E/DX2 analytically  !
 ! D29   D(4,5,7,8)            179.7262         calculate D2E/DX2 analytically  !
 ! D30   D(6,5,7,8)             -0.3136         calculate D2E/DX2 analytically  !
 ! D31   D(5,7,8,9)             -1.0116         calculate D2E/DX2 analytically  !
 ! D32   D(5,7,8,10)           179.1204         calculate D2E/DX2 analytically  !
 ! D33   D(7,8,9,13)          -179.8848         calculate D2E/DX2 analytically  !
 ! D34   D(7,8,9,22)            -0.0158         calculate D2E/DX2 analytically  !
 ! D35   D(10,8,9,13)           -0.0173         calculate D2E/DX2 analytically  !
 ! D36   D(10,8,9,22)          179.8517         calculate D2E/DX2 analytically  !
 ! D37   D(7,8,10,11)          179.9339         calculate D2E/DX2 analytically  !
 ! D38   D(7,8,10,23)           -0.0908         calculate D2E/DX2 analytically  !
 ! D39   D(9,8,10,11)            0.0567         calculate D2E/DX2 analytically  !
 ! D40   D(9,8,10,23)         -179.9681         calculate D2E/DX2 analytically  !
 ! D41   D(8,9,13,12)           -0.029          calculate D2E/DX2 analytically  !
 ! D42   D(8,9,13,26)          179.9271         calculate D2E/DX2 analytically  !
 ! D43   D(22,9,13,12)        -179.9036         calculate D2E/DX2 analytically  !
 ! D44   D(22,9,13,26)           0.0525         calculate D2E/DX2 analytically  !
 ! D45   D(8,10,11,12)          -0.0493         calculate D2E/DX2 analytically  !
 ! D46   D(8,10,11,24)         179.9752         calculate D2E/DX2 analytically  !
 ! D47   D(23,10,11,12)        179.975          calculate D2E/DX2 analytically  !
 ! D48   D(23,10,11,24)         -0.0005         calculate D2E/DX2 analytically  !
 ! D49   D(10,11,12,13)          0.0008         calculate D2E/DX2 analytically  !
 ! D50   D(10,11,12,25)       -179.9637         calculate D2E/DX2 analytically  !
 ! D51   D(24,11,12,13)        179.9761         calculate D2E/DX2 analytically  !
 ! D52   D(24,11,12,25)          0.0116         calculate D2E/DX2 analytically  !
 ! D53   D(11,12,13,9)           0.0375         calculate D2E/DX2 analytically  !
 ! D54   D(11,12,13,26)       -179.9187         calculate D2E/DX2 analytically  !
 ! D55   D(25,12,13,9)        -179.9996         calculate D2E/DX2 analytically  !
 ! D56   D(25,12,13,26)          0.0442         calculate D2E/DX2 analytically  !
 ! D57   D(9,13,26,27)           0.0233         calculate D2E/DX2 analytically  !
 ! D58   D(9,13,26,28)        -120.0687         calculate D2E/DX2 analytically  !
 ! D59   D(9,13,26,29)         120.1339         calculate D2E/DX2 analytically  !
 ! D60   D(12,13,26,27)        179.9788         calculate D2E/DX2 analytically  !
 ! D61   D(12,13,26,28)         59.8868         calculate D2E/DX2 analytically  !
 ! D62   D(12,13,26,29)        -59.9106         calculate D2E/DX2 analytically  !
 --------------------------------------------------------------------------------
 Trust Radius=3.00D-01 FncErr=1.00D-07 GrdErr=1.00D-06
 Number of steps in this run=    150 maximum allowed number of steps=    174.
 GradGradGradGradGradGradGradGradGradGradGradGradGradGradGradGradGradGrad

                          Input orientation:                          
 ---------------------------------------------------------------------
 Center     Atomic      Atomic             Coordinates (Angstroms)
 Number     Number       Type             X           Y           Z
 ---------------------------------------------------------------------
      1          6           0       -1.973520    2.155910   -0.086650
      2          6           0       -0.610570    1.479050    0.025720
      3          6           0        0.527770    2.494350   -0.127590
      4          7           0        1.822950    1.845160   -0.019950
      5          6           0        2.988990    2.542900   -0.130100
      6          8           0        2.946080    3.747080   -0.324500
      7          7           0        4.182520    1.880410   -0.019880
      8          6           0        5.514240    2.422350   -0.109870
      9          6           0        5.814650    3.784660   -0.357170
     10          6           0        6.588850    1.531780    0.057670
     11          6           0        7.909250    1.969030   -0.014850
     12          6           0        8.198630    3.310990   -0.258300
     13          6           0        7.149680    4.238190   -0.433420
     14          1           0       -2.776330    1.397190    0.026350
     15          1           0       -2.082020    2.643370   -1.078980
     16          1           0       -2.091750    2.920440    0.710580
     17          1           0       -0.525800    0.705330   -0.768290
     18          1           0       -0.534670    0.983270    1.017980
     19          1           0        0.438640    3.267620    0.667250
     20          1           0        0.446190    2.986140   -1.122130
     21          1           0        1.860660    0.826540    0.143150
     22          1           0        5.041490    4.513310   -0.496160
     23          1           0        6.403540    0.481780    0.247960
     24          1           0        8.713120    1.256040    0.119400
     25         17           0        9.893160    3.787850   -0.336980
     26          6           0        7.456550    5.698600   -0.700290
     27          9           0        6.306890    6.456160   -0.845190
     28          9           0        8.195760    5.811920   -1.863920
     29          9           0        8.185150    6.219720    0.353640
 ---------------------------------------------------------------------
                    Distance matrix (angstroms):
                    1          2          3          4          5
     1  C    0.000000
     2  C    1.525909   0.000000
     3  C    2.524415   1.533022   0.000000
     4  N    3.809751   2.461329   1.452765   0.000000
     5  C    4.977766   3.756713   2.461700   1.363313   0.000000
     6  O    5.175989   4.232774   2.730628   2.229680   1.220525
     7  N    6.162563   4.810081   3.707522   2.359833   1.369509
     8  C    7.492535   6.198508   4.987021   3.737226   2.528207
     9  C    7.961256   6.837097   5.446899   4.450735   3.094816
    10  C    8.586300   7.199684   6.139833   4.776823   3.743877
    11  C    9.884798   8.533994   7.401008   6.087563   4.954954
    12  C   10.238960   9.002148   7.715315   6.546355   5.267518
    13  C    9.364236   8.248948   6.854502   5.854195   4.503038
    14  H    1.110373   2.167307   3.484901   4.621277   5.880140
    15  H    1.110904   2.177422   2.781790   4.124012   5.160001
    16  H    1.110883   2.177276   2.783158   4.124897   5.163642
    17  H    2.159794   1.111882   2.172809   2.715852   4.017175
    18  H    2.159996   1.111818   2.173585   2.716344   4.020785
    19  H    2.760938   2.170573   1.112502   2.100464   2.768623
    20  H    2.759800   2.169244   1.112485   2.100501   2.765216
    21  H    4.064599   2.558620   2.152089   1.032284   2.072121
    22  H    7.411842   6.436216   4.958398   4.207707   2.868671
    23  H    8.549258   7.088136   6.222230   4.786688   4.006282
    24  H   10.726439   9.326827   8.282172   6.916713   5.872301
    25  Cl  11.980984  10.760597   9.456612   8.306795   7.018566
    26  C   10.092246   9.132914   7.655272   6.859250   5.499332
    27  F    9.361235   8.566292   7.043374   6.484448   5.180098
    28  F   10.951683   9.994796   8.533416   7.729691   6.387729
    29  F   10.950205   9.997308   8.529093   7.730067   6.383815
                    6          7          8          9         10
     6  O    0.000000
     7  N    2.259654   0.000000
     8  C    2.897658   1.440582   0.000000
     9  C    2.869002   2.530569   1.416789   0.000000
    10  C    4.280582   2.432690   1.405692   2.418046   0.000000
    11  C    5.281136   3.727787   2.439385   2.793035   1.392804
    12  C    5.271038   4.269958   2.831548   2.432591   2.420086
    13  C    4.233593   3.812372   2.465081   1.412023   2.807197
    14  H    6.196052   6.975760   8.354823   8.924799   9.366199
    15  H    5.202807   6.399083   7.661018   8.011301   8.815418
    16  H    5.209074   6.401695   7.666310   8.024844   8.815185
    17  H    4.637148   4.910113   6.313775   7.060637   7.209957
    18  H    4.642900   4.912626   6.319202   7.074792   7.208855
    19  H    2.738742   4.051313   5.203856   5.497113   6.419487
    20  H    2.732159   4.049414   5.198813   5.481164   6.421788
    21  H    3.150617   2.555045   3.994906   4.963349   4.781260
    22  H    2.237704   2.810131   2.178262   1.071459   3.404493
    23  H    4.789982   2.638339   2.164419   3.409104   1.083074
    24  H    6.297704   4.575541   3.412576   3.875844   2.142981
    25  Cl   6.947211   6.029120   4.592506   4.078561   4.020456
    26  C    4.928893   5.075510   3.854216   2.544943   4.323170
    27  F    4.348020   5.111905   4.176196   2.759959   5.014397
    28  F    5.847437   5.912981   4.664378   3.471277   4.959261
    29  F    5.832810   5.915249   4.665685   3.471893   4.961104
                   11         12         13         14         15
    11  C    0.000000
    12  C    1.394226   0.000000
    13  C    2.429246   1.410909   0.000000
    14  H   10.700949  11.144209  10.334812   0.000000
    15  H   10.070381  10.334941   9.390659   1.804657   0.000000
    16  H   10.072310  10.343267   9.404745   1.804747   1.810908
    17  H    8.562399   9.119497   8.456136   2.484956   2.504865
    18  H    8.563775   9.127853   8.470555   2.485900   3.089897
    19  H    7.613252   7.815112   6.869610   3.774294   3.129334
    20  H    7.613005   7.807180   6.854103   3.772056   2.551705
    21  H    6.157572   6.819349   6.320247   4.673431   4.509900
    22  H    3.863815   3.386692   2.126991   8.432172   7.387879
    23  H    2.132638   3.388669   3.889938   9.228060   8.856521
    24  H    1.082860   2.151785   3.412209  11.490694  10.949696
    25  Cl   2.710678   1.762106   2.781868  12.898187  12.052607
    26  C    3.818960   2.539039   1.515977  11.123937  10.023081
    27  F    4.836461   3.716882   2.408161  10.433487   9.217691
    28  F    4.274219   2.971982   2.370072  11.977050  10.783719
    29  F    4.275543   2.972434   2.370258  11.979898  10.966196
                   16         17         18         19         20
    16  H    0.000000
    17  H    3.089655   0.000000
    18  H    2.504320   1.807786   0.000000
    19  H    2.554464   3.091318   2.507708   0.000000
    20  H    3.131179   2.504408   3.090897   1.811400   0.000000
    21  H    4.508652   2.557461   2.554897   2.873272   2.874984
    22  H    7.407872   6.750517   6.771068   4.908309   4.882711
    23  H    8.850482   7.007032   6.998799   6.596722   6.605981
    24  H   10.948285   9.297791   9.295347   8.533089   8.536789
    25  Cl  12.061834  10.873945  10.883071   9.521926   9.513382
    26  C   10.043842   9.415693   9.436439   7.551880   7.528648
    27  F    9.244398   8.931048   8.957169   6.847673   6.816564
    28  F   10.991887  10.165789  10.384682   8.547116   8.281976
    29  F   10.799413  10.370529  10.192989   8.295882   8.516187
                   21         22         23         24         25
    21  H    0.000000
    22  H    4.911076   0.000000
    23  H    4.557149   4.319969   0.000000
    24  H    6.865948   4.946675   2.439296   0.000000
    25  Cl   8.574435   4.908190   4.842489   2.830343   0.000000
    26  C    7.467419   2.697980   5.405850   4.689051   3.117696
    27  F    7.241436   2.344723   6.074334   5.810475   4.498832
    28  F    8.307577   3.675129   6.006870   4.995724   3.051159
    29  F    8.314437   3.676492   6.009098   4.997173   3.050942
                   26         27         28         29
    26  C    0.000000
    27  F    1.384417   0.000000
    28  F    1.383224   2.240689   0.000000
    29  F    1.383182   2.240749   2.254770   0.000000
 Stoichiometry    C11H11ClF3N2O(1-)
 Framework group  C1[X(C11H11ClF3N2O)]
 Deg. of freedom    81
 Full point group                 C1      NOp   1
 Largest Abelian subgroup         C1      NOp   1
 Largest concise Abelian subgroup C1      NOp   1
                         Standard orientation:                         
 ---------------------------------------------------------------------
 Center     Atomic      Atomic             Coordinates (Angstroms)
 Number     Number       Type             X           Y           Z
 ---------------------------------------------------------------------
      1          6           0        7.303967    0.773926    0.001953
      2          6           0        6.194255   -0.273316    0.016837
      3          6           0        4.809798    0.384502   -0.009857
      4          7           0        3.756993   -0.616458    0.004513
      5          6           0        2.437623   -0.273334   -0.007836
      6          8           0        2.129812    0.907496   -0.031783
      7          7           0        1.486095   -1.258198    0.006031
      8          6           0        0.052875   -1.112799    0.002227
      9          6           0       -0.631041    0.127987    0.003233
     10          6           0       -0.717632   -2.288506    0.000036
     11          6           0       -2.109642   -2.241560   -0.002296
     12          6           0       -2.777065   -1.017464   -0.001481
     13          6           0       -2.041841    0.186736    0.001712
     14          1           0        8.292622    0.268929    0.023603
     15          1           0        7.222883    1.435227    0.890894
     16          1           0        7.239861    1.391227   -0.919400
     17          1           0        6.293169   -0.890261    0.936552
     18          1           0        6.308919   -0.933121   -0.870658
     19          1           0        4.715229    1.002128   -0.930322
     20          1           0        4.701592    1.042564    0.880575
     21          1           0        4.015954   -1.615499    0.026096
     22          1           0       -0.102353    1.059919    0.007261
     23          1           0       -0.234818   -3.258011   -0.000273
     24          1           0       -2.672401   -3.166700   -0.004354
     25         17           0       -4.539037   -1.039140   -0.003576
     26          6           0       -2.760551    1.521514    0.004473
     27          9           0       -1.879534    2.589413    0.007894
     28          9           0       -3.556614    1.617128    1.131615
     29          9           0       -3.555143    1.622957   -1.123147
 ---------------------------------------------------------------------
 Rotational constants (GHZ):      0.8710174      0.1372839      0.1216333
 General basis read from cards:  (6D, 7F)
 There are   368 symmetry adapted cartesian basis functions of A   symmetry.
 There are   368 symmetry adapted basis functions of A   symmetry.
   368 basis functions,   644 primitive gaussians,   368 cartesian basis functions
    72 alpha electrons       72 beta electrons
       nuclear repulsion energy      1406.6317588027 Hartrees.
 NAtoms=   29 NActive=   29 NUniq=   29 SFac= 1.00D+00 NAtFMM=   60 NAOKFM=F Big=F
 Integral buffers will be    131072 words long.
 Raffenetti 2 integral format.
 Two-electron integral symmetry is turned on.
 Force inversion solution in PCM.
 ------------------------------------------------------------------------------
 Polarizable Continuum Model (PCM)
 =================================
 Model                : PCM (using non-symmetric T matrix).
 Atomic radii         : SMD-Coulomb.
 Polarization charges : Total charges.
 Charge compensation  : None.
 Solution method      : Matrix inversion.
 Cavity type          : VdW (van der Waals Surface) (Alpha=1.000).
 Cavity algorithm     : GePol (No added spheres)
                        Default sphere list used, NSphG=   29.
                        Lebedev-Laikov grids with approx.  5.0 points / Ang**2.
                        Smoothing algorithm: York/Karplus (Gamma=1.0000).
                        Polarization charges: spherical gaussians, with
                                              point-specific exponents (IZeta= 3).
                        Self-potential: point-specific (ISelfS= 7).
                        Self-field    : sphere-specific E.n sum rule (ISelfD= 2).
 1st derivatives      : Analytical E(r).r(x)/FMM algorithm (CHGder, D1EAlg=3).
                        Cavity 1st derivative terms included.
 2nd derivatives      : Analytical E(r).r(xy)/FMM algorithm (CHGder, D2EAlg=3).
                        Cavity 2nd derivative terms included.
 Solvent              : Water, Eps=  78.355300 Eps(inf)=   1.777849
 ------------------------------------------------------------------------------
 ------------------------------------------------------------------------------
 Atomic radii for non-electrostatic terms: SMD-CDS.
 ------------------------------------------------------------------------------
 Nuclear repulsion after PCM non-electrostatic terms =     1406.6406533485 Hartrees.
 One-electron integrals computed using PRISM.
 NBasis=   368 RedAO= T EigKep=  1.60D-06  NBF=   368
 NBsUse=   367 1.00D-06 EigRej=  3.60D-07 NBFU=   367
 ExpMin= 4.38D-02 ExpMax= 2.52D+04 ExpMxC= 3.78D+03 IAcc=3 IRadAn=         5 AccDes= 0.00D+00
 Harris functional with IExCor= 1009 and IRadAn=       5 diagonalized for initial guess.
 HarFok:  IExCor= 1009 AccDes= 0.00D+00 IRadAn=         5 IDoV= 1 UseB2=F ITyADJ=14
 ICtDFT=  3500011 ScaDFX=  1.000000  1.000000  1.000000  1.000000
 FoFCou: FMM=F IPFlag=           0 FMFlag=      100000 FMFlg1=           0
         NFxFlg=           0 DoJE=T BraDBF=F KetDBF=T FulRan=T
         wScrn=  0.000000 ICntrl=     500 IOpCl=  0 I1Cent=   200000004 NGrid=           0
         NMat0=    1 NMatS0=      1 NMatT0=    0 NMatD0=    1 NMtDS0=    0 NMtDT0=    0
 Petite list used in FoFCou.
 Requested convergence on RMS density matrix=1.00D-08 within 128 cycles.
 Requested convergence on MAX density matrix=1.00D-06.
 Requested convergence on             energy=1.00D-06.
 No special actions if energy rises.
 Inv3:  Mode=1 IEnd=    17467707.
 Iteration    1 A*A^-1 deviation from unit magnitude is 4.55D-15 for   2391.
 Iteration    1 A*A^-1 deviation from orthogonality  is 4.18D-15 for   1471    462.
 Iteration    1 A^-1*A deviation from unit magnitude is 4.66D-15 for   2379.
 Iteration    1 A^-1*A deviation from orthogonality  is 1.32D-10 for   1214   1210.
 Iteration    2 A*A^-1 deviation from unit magnitude is 3.11D-15 for    380.
 Iteration    2 A*A^-1 deviation from orthogonality  is 3.31D-15 for   2409    384.
 Iteration    2 A^-1*A deviation from unit magnitude is 9.99D-16 for    617.
 Iteration    2 A^-1*A deviation from orthogonality  is 5.10D-16 for   2407   2204.
 Error on total polarization charges =  0.05278
 SCF Done:  E(RM062X) =  -1370.04959185     A.U. after   15 cycles
            NFock= 15  Conv=0.78D-08     -V/T= 2.0068
 SMD-CDS (non-electrostatic) energy       (kcal/mol) =       5.58
 (included in total energy above)
 DoSCS=F DFT=T ScalE2(SS,OS)=  1.000000  1.000000
 Range of M.O.s used for correlation:     1   367
 NBasis=   368 NAE=    72 NBE=    72 NFC=     0 NFV=     0
 NROrb=    367 NOA=    72 NOB=    72 NVA=   295 NVB=   295

 **** Warning!!: The largest alpha MO coefficient is  0.15957532D+03

 Symmetrizing basis deriv contribution to polar:
 IMax=3 JMax=2 DiffMx= 0.00D+00
 G2DrvN: will do    30 centers at a time, making    1 passes.
 Calling FoFCou, ICntrl=  3107 FMM=F I1Cent=   0 AccDes= 0.00D+00.
 NEqPCM:  Using equilibrium solvation (IEInf=0, Eps=  78.3553, EpsInf=   1.7778)
 G2PCM: DoFxE=T DoFxN=T DoGrad=T DoDP/DQ/DG/TGxP=FFFF NFrqRd=   0 IEInf=0 SqF1=F DoCFld=F IF1Alg=4.
 End of G2Drv F.D. properties file   721 does not exist.
 End of G2Drv F.D. properties file   722 does not exist.
 End of G2Drv F.D. properties file   788 does not exist.
          IDoAtm=11111111111111111111111111111
 NEqPCM:  Using equilibrium solvation (IEInf=0, Eps=  78.3553, EpsInf=   1.7778)
          Differentiating once with respect to nuclear coordinates.
          There are    90 degrees of freedom in the 1st order CPHF.  IDoFFX=6 NUNeed=     0.
     84 vectors produced by pass  0 Test12= 2.36D-14 1.11D-09 XBig12= 2.35D-01 1.02D-01.
 AX will form    84 AO Fock derivatives at one time.
     84 vectors produced by pass  1 Test12= 2.36D-14 1.11D-09 XBig12= 1.68D-02 2.60D-02.
     84 vectors produced by pass  2 Test12= 2.36D-14 1.11D-09 XBig12= 3.75D-04 3.43D-03.
     84 vectors produced by pass  3 Test12= 2.36D-14 1.11D-09 XBig12= 3.36D-06 2.66D-04.
     84 vectors produced by pass  4 Test12= 2.36D-14 1.11D-09 XBig12= 3.30D-08 1.81D-05.
     84 vectors produced by pass  5 Test12= 2.36D-14 1.11D-09 XBig12= 2.04D-10 1.71D-06.
     67 vectors produced by pass  6 Test12= 2.36D-14 1.11D-09 XBig12= 9.03D-13 8.92D-08.
     28 vectors produced by pass  7 Test12= 2.36D-14 1.11D-09 XBig12= 3.71D-15 6.36D-09.
     17 vectors produced by pass  8 Test12= 2.36D-14 1.11D-09 XBig12= 9.26D-16 3.34D-09.
     12 vectors produced by pass  9 Test12= 2.36D-14 1.11D-09 XBig12= 2.27D-15 5.63D-09.
     12 vectors produced by pass 10 Test12= 2.36D-14 1.11D-09 XBig12= 4.07D-15 7.02D-09.
     12 vectors produced by pass 11 Test12= 2.36D-14 1.11D-09 XBig12= 9.35D-15 1.11D-08.
     12 vectors produced by pass 12 Test12= 2.36D-14 1.11D-09 XBig12= 5.46D-15 6.41D-09.
     12 vectors produced by pass 13 Test12= 2.36D-14 1.11D-09 XBig12= 1.11D-14 1.10D-08.
      8 vectors produced by pass 14 Test12= 2.36D-14 1.11D-09 XBig12= 1.63D-15 3.99D-09.
      8 vectors produced by pass 15 Test12= 2.36D-14 1.11D-09 XBig12= 4.46D-15 6.07D-09.
      8 vectors produced by pass 16 Test12= 2.36D-14 1.11D-09 XBig12= 1.78D-14 1.46D-08.
      8 vectors produced by pass 17 Test12= 2.36D-14 1.11D-09 XBig12= 3.47D-15 5.48D-09.
      8 vectors produced by pass 18 Test12= 2.36D-14 1.11D-09 XBig12= 3.49D-15 4.71D-09.
      8 vectors produced by pass 19 Test12= 2.36D-14 1.11D-09 XBig12= 4.01D-15 4.34D-09.
      8 vectors produced by pass 20 Test12= 2.36D-14 1.11D-09 XBig12= 6.16D-15 7.06D-09.
      8 vectors produced by pass 21 Test12= 2.36D-14 1.11D-09 XBig12= 6.34D-15 6.41D-09.
      8 vectors produced by pass 22 Test12= 2.36D-14 1.11D-09 XBig12= 8.86D-15 7.55D-09.
      8 vectors produced by pass 23 Test12= 2.36D-14 1.11D-09 XBig12= 7.25D-15 6.05D-09.
      8 vectors produced by pass 24 Test12= 2.36D-14 1.11D-09 XBig12= 7.70D-15 7.50D-09.
      6 vectors produced by pass 25 Test12= 2.36D-14 1.11D-09 XBig12= 2.19D-15 3.90D-09.
      6 vectors produced by pass 26 Test12= 2.36D-14 1.11D-09 XBig12= 7.07D-15 6.19D-09.
      6 vectors produced by pass 27 Test12= 2.36D-14 1.11D-09 XBig12= 7.63D-15 6.07D-09.
      6 vectors produced by pass 28 Test12= 2.36D-14 1.11D-09 XBig12= 4.06D-15 5.28D-09.
      6 vectors produced by pass 29 Test12= 2.36D-14 1.11D-09 XBig12= 7.14D-15 5.64D-09.
      5 vectors produced by pass 30 Test12= 2.36D-14 1.11D-09 XBig12= 2.80D-15 4.06D-09.
      5 vectors produced by pass 31 Test12= 2.36D-14 1.11D-09 XBig12= 4.60D-15 5.37D-09.
      5 vectors produced by pass 32 Test12= 2.36D-14 1.11D-09 XBig12= 9.45D-15 7.06D-09.
      5 vectors produced by pass 33 Test12= 2.36D-14 1.11D-09 XBig12= 1.29D-14 8.18D-09.
      4 vectors produced by pass 34 Test12= 2.36D-14 1.11D-09 XBig12= 2.07D-15 3.29D-09.
      2 vectors produced by pass 35 Test12= 2.36D-14 1.11D-09 XBig12= 1.93D-15 4.33D-09.
 InvSVY:  IOpt=1 It=  1 EMax= 8.33D-16
 Solved reduced A of dimension   820 with    90 vectors.
 End of Minotr F.D. properties file   721 does not exist.
 End of Minotr F.D. properties file   722 does not exist.
 End of Minotr F.D. properties file   788 does not exist.

 **********************************************************************

            Population analysis using the SCF density.

 **********************************************************************

 Orbital symmetries:
       Occupied  (A) (A) (A) (A) (A) (A) (A) (A) (A) (A) (A) (A)
                 (A) (A) (A) (A) (A) (A) (A) (A) (A) (A) (A) (A)
                 (A) (A) (A) (A) (A) (A) (A) (A) (A) (A) (A) (A)
                 (A) (A) (A) (A) (A) (A) (A) (A) (A) (A) (A) (A)
                 (A) (A) (A) (A) (A) (A) (A) (A) (A) (A) (A) (A)
                 (A) (A) (A) (A) (A) (A) (A) (A) (A) (A) (A) (A)
       Virtual   (A) (A) (A) (A) (A) (A) (A) (A) (A) (A) (A) (A)
                 (A) (A) (A) (A) (A) (A) (A) (A) (A) (A) (A) (A)
                 (A) (A) (A) (A) (A) (A) (A) (A) (A) (A) (A) (A)
                 (A) (A) (A) (A) (A) (A) (A) (A) (A) (A) (A) (A)
                 (A) (A) (A) (A) (A) (A) (A) (A) (A) (A) (A) (A)
                 (A) (A) (A) (A) (A) (A) (A) (A) (A) (A) (A) (A)
                 (A) (A) (A) (A) (A) (A) (A) (A) (A) (A) (A) (A)
                 (A) (A) (A) (A) (A) (A) (A) (A) (A) (A) (A) (A)
                 (A) (A) (A) (A) (A) (A) (A) (A) (A) (A) (A) (A)
                 (A) (A) (A) (A) (A) (A) (A) (A) (A) (A) (A) (A)
                 (A) (A) (A) (A) (A) (A) (A) (A) (A) (A) (A) (A)
                 (A) (A) (A) (A) (A) (A) (A) (A) (A) (A) (A) (A)
                 (A) (A) (A) (A) (A) (A) (A) (A) (A) (A) (A) (A)
                 (A) (A) (A) (A) (A) (A) (A) (A) (A) (A) (A) (A)
                 (A) (A) (A) (A) (A) (A) (A) (A) (A) (A) (A) (A)
                 (A) (A) (A) (A) (A) (A) (A) (A) (A) (A) (A) (A)
                 (A) (A) (A) (A) (A) (A) (A) (A) (A) (A) (A) (A)
                 (A) (A) (A) (A) (A) (A) (A) (A) (A) (A) (A) (A)
                 (A) (A) (A) (A) (A) (A) (A) (A) (A) (A) (A) (A)
                 (A) (A) (A) (A) (A) (A) (A) (A) (A) (A) (A) (A)
                 (A) (A) (A) (A) (A) (A) (A) (A) (A) (A) (A) (A)
                 (A) (A) (A) (A) (A) (A) (A) (A) (A) (A) (A) (A)
                 (A) (A) (A) (A) (A) (A) (A) (A) (A) (A) (A) (A)
                 (A) (A) (A) (A) (A) (A) (A) (A) (A) (A) (A) (A)
                 (A) (A) (A) (A) (A) (A) (A)
 The electronic state is 1-A.
 Alpha  occ. eigenvalues -- -102.67525 -25.31102 -25.30802 -25.30800 -19.58688
 Alpha  occ. eigenvalues --  -14.76080 -14.70404 -10.82773 -10.64433 -10.61874
 Alpha  occ. eigenvalues --  -10.59382 -10.59158 -10.57138 -10.56465 -10.55676
 Alpha  occ. eigenvalues --  -10.55251 -10.54144 -10.53231  -9.82150  -7.54551
 Alpha  occ. eigenvalues --   -7.53895  -7.53885  -1.44898  -1.37125  -1.37090
 Alpha  occ. eigenvalues --   -1.15559  -1.00706  -1.00134  -0.95984  -0.91626
 Alpha  occ. eigenvalues --   -0.88376  -0.86651  -0.81886  -0.79916  -0.75605
 Alpha  occ. eigenvalues --   -0.71825  -0.70059  -0.68523  -0.67544  -0.66659
 Alpha  occ. eigenvalues --   -0.65133  -0.61692  -0.57881  -0.57345  -0.56943
 Alpha  occ. eigenvalues --   -0.55247  -0.54834  -0.54332  -0.53869  -0.53332
 Alpha  occ. eigenvalues --   -0.52011  -0.51797  -0.51192  -0.49515  -0.48773
 Alpha  occ. eigenvalues --   -0.47817  -0.46696  -0.45441  -0.44420  -0.44198
 Alpha  occ. eigenvalues --   -0.42407  -0.41220  -0.40603  -0.38951  -0.38700
 Alpha  occ. eigenvalues --   -0.37913  -0.34970  -0.33616  -0.31888  -0.30450
 Alpha  occ. eigenvalues --   -0.27865  -0.23111
 Alpha virt. eigenvalues --    0.00016   0.01742   0.01790   0.02702   0.03331
 Alpha virt. eigenvalues --    0.03931   0.04395   0.04701   0.04734   0.06010
 Alpha virt. eigenvalues --    0.06034   0.06305   0.06807   0.07914   0.07942
 Alpha virt. eigenvalues --    0.08055   0.08413   0.09112   0.09405   0.10251
 Alpha virt. eigenvalues --    0.10286   0.10361   0.11394   0.11898   0.12474
 Alpha virt. eigenvalues --    0.12959   0.13113   0.13737   0.13929   0.14196
 Alpha virt. eigenvalues --    0.14964   0.15271   0.15563   0.15987   0.17343
 Alpha virt. eigenvalues --    0.17502   0.18352   0.19102   0.19608   0.19766
 Alpha virt. eigenvalues --    0.20296   0.20814   0.21203   0.21401   0.21663
 Alpha virt. eigenvalues --    0.22385   0.23068   0.23115   0.23604   0.23868
 Alpha virt. eigenvalues --    0.24220   0.24663   0.24847   0.24972   0.25096
 Alpha virt. eigenvalues --    0.26071   0.26278   0.26442   0.26889   0.28046
 Alpha virt. eigenvalues --    0.28357   0.28966   0.30079   0.30157   0.30557
 Alpha virt. eigenvalues --    0.30815   0.31050   0.31700   0.31935   0.32700
 Alpha virt. eigenvalues --    0.33227   0.33486   0.33601   0.33898   0.34214
 Alpha virt. eigenvalues --    0.34895   0.35349   0.36109   0.36442   0.37059
 Alpha virt. eigenvalues --    0.38249   0.38330   0.38400   0.38969   0.39808
 Alpha virt. eigenvalues --    0.40378   0.40508   0.42055   0.42904   0.44174
 Alpha virt. eigenvalues --    0.44277   0.44940   0.45284   0.46543   0.47297
 Alpha virt. eigenvalues --    0.49201   0.49951   0.52265   0.53836   0.55650
 Alpha virt. eigenvalues --    0.57258   0.59118   0.61640   0.62990   0.66962
 Alpha virt. eigenvalues --    0.69577   0.69801   0.70492   0.71288   0.71417
 Alpha virt. eigenvalues --    0.73034   0.74704   0.75264   0.75386   0.76415
 Alpha virt. eigenvalues --    0.76807   0.77843   0.77884   0.79490   0.80418
 Alpha virt. eigenvalues --    0.80525   0.82527   0.82854   0.83523   0.83926
 Alpha virt. eigenvalues --    0.84842   0.87144   0.87713   0.88852   0.90156
 Alpha virt. eigenvalues --    0.90549   0.90950   0.95719   0.98005   0.98631
 Alpha virt. eigenvalues --    0.98828   0.98916   1.00896   1.01124   1.01954
 Alpha virt. eigenvalues --    1.03595   1.04110   1.04417   1.06041   1.06880
 Alpha virt. eigenvalues --    1.08801   1.10206   1.10819   1.12824   1.13151
 Alpha virt. eigenvalues --    1.13745   1.14023   1.15784   1.17002   1.18182
 Alpha virt. eigenvalues --    1.19095   1.20085   1.22319   1.22971   1.23877
 Alpha virt. eigenvalues --    1.25291   1.27558   1.28477   1.29746   1.32204
 Alpha virt. eigenvalues --    1.34888   1.35132   1.37175   1.39180   1.41022
 Alpha virt. eigenvalues --    1.42192   1.42842   1.44454   1.46176   1.47943
 Alpha virt. eigenvalues --    1.48956   1.49236   1.50691   1.51207   1.53239
 Alpha virt. eigenvalues --    1.53705   1.57327   1.58122   1.58937   1.61794
 Alpha virt. eigenvalues --    1.62236   1.64884   1.66747   1.67647   1.68681
 Alpha virt. eigenvalues --    1.71190   1.73673   1.74517   1.74734   1.75574
 Alpha virt. eigenvalues --    1.76664   1.79847   1.80644   1.83086   1.84728
 Alpha virt. eigenvalues --    1.85821   1.87070   1.87454   1.87655   1.88252
 Alpha virt. eigenvalues --    1.88577   1.89765   1.90336   1.91548   1.92054
 Alpha virt. eigenvalues --    1.92830   1.94992   1.96655   1.98809   1.99228
 Alpha virt. eigenvalues --    1.99719   2.02479   2.03629   2.04315   2.05097
 Alpha virt. eigenvalues --    2.05265   2.05531   2.06687   2.07874   2.08016
 Alpha virt. eigenvalues --    2.09187   2.09359   2.12297   2.13244   2.15775
 Alpha virt. eigenvalues --    2.18317   2.21012   2.21554   2.22135   2.22320
 Alpha virt. eigenvalues --    2.24698   2.27802   2.28461   2.29564   2.30852
 Alpha virt. eigenvalues --    2.30990   2.31948   2.37967   2.39013   2.39934
 Alpha virt. eigenvalues --    2.41621   2.41995   2.44125   2.46939   2.50645
 Alpha virt. eigenvalues --    2.53445   2.59505   2.61710   2.64492   2.66821
 Alpha virt. eigenvalues --    2.67051   2.69021   2.72949   2.76445   2.76489
 Alpha virt. eigenvalues --    2.77714   2.78713   2.80878   2.81266   2.83607
 Alpha virt. eigenvalues --    2.87653   2.93262   2.98344   3.05467   3.11445
 Alpha virt. eigenvalues --    3.13518   3.15286   3.25723   3.27579   3.29556
 Alpha virt. eigenvalues --    3.35695   3.42643   4.17841   4.26235   4.27486
 Alpha virt. eigenvalues --    4.33356   4.39411   4.41721   4.44348   4.45677
 Alpha virt. eigenvalues --    4.47169   4.50836   4.52254   4.59591   4.61801
 Alpha virt. eigenvalues --    4.68259   4.79979   5.51351   6.08672   6.85788
          Condensed to atoms (all electrons):
               1          2          3          4          5          6
     1  C    5.656167  -0.081145   0.045114  -0.007954  -0.047677  -0.004593
     2  C   -0.081145   6.206373  -0.457689  -0.066588   0.164964   0.022716
     3  C    0.045114  -0.457689   6.986091   0.257329  -0.620960  -0.091956
     4  N   -0.007954  -0.066588   0.257329   7.729751   0.435127  -0.246343
     5  C   -0.047677   0.164964  -0.620960   0.435127   6.217799   0.473745
     6  O   -0.004593   0.022716  -0.091956  -0.246343   0.473745   8.787514
     7  N   -0.002532   0.005951  -0.086565  -0.336685   0.291828  -0.122840
     8  C   -0.010150   0.005445  -0.438986  -0.175566  -0.847816  -0.240944
     9  C    0.004270   0.009048   0.130107   0.050933   0.704244   0.311714
    10  C   -0.003406   0.007761  -0.199497  -0.113755  -1.654928  -0.121798
    11  C    0.000052  -0.001406   0.005674  -0.002286   0.034246   0.013275
    12  C   -0.000029   0.000211  -0.005767   0.003570   0.029151  -0.008135
    13  C    0.000522   0.001206   0.023783   0.037358   0.260046   0.041156
    14  H    0.413036  -0.088290   0.027618   0.000442  -0.002064   0.000006
    15  H    0.416375  -0.064247  -0.008281   0.000361  -0.000086  -0.000052
    16  H    0.415321  -0.064312  -0.007686   0.000378   0.000419  -0.000050
    17  H   -0.036493   0.426895  -0.075440   0.005791  -0.005321  -0.000194
    18  H   -0.034938   0.425093  -0.072078   0.005678  -0.008159  -0.000191
    19  H    0.002985  -0.042373   0.430706  -0.058005  -0.027055   0.003190
    20  H    0.003131  -0.042698   0.431956  -0.058324  -0.028046   0.003196
    21  H   -0.004200   0.004503  -0.082750   0.244493   0.031432   0.011068
    22  H   -0.000000  -0.000012   0.004428   0.000770   0.018944  -0.002674
    23  H   -0.000000   0.000034  -0.000916  -0.000024  -0.024738   0.000126
    24  H    0.000000   0.000000   0.000022   0.000016   0.002702   0.000000
    25  Cl  -0.000001   0.000006  -0.000208   0.000011  -0.009918   0.000069
    26  C   -0.000057   0.000484  -0.012501   0.000024  -0.188239   0.001494
    27  F    0.000000   0.000003   0.000267  -0.000046   0.005656  -0.000857
    28  F    0.000000  -0.000000   0.000013  -0.000002   0.001771  -0.000022
    29  F    0.000000  -0.000000   0.000025   0.000000   0.002395  -0.000023
               7          8          9         10         11         12
     1  C   -0.002532  -0.010150   0.004270  -0.003406   0.000052  -0.000029
     2  C    0.005951   0.005445   0.009048   0.007761  -0.001406   0.000211
     3  C   -0.086565  -0.438986   0.130107  -0.199497   0.005674  -0.005767
     4  N   -0.336685  -0.175566   0.050933  -0.113755  -0.002286   0.003570
     5  C    0.291828  -0.847816   0.704244  -1.654928   0.034246   0.029151
     6  O   -0.122840  -0.240944   0.311714  -0.121798   0.013275  -0.008135
     7  N    7.842148   0.325753  -0.189468  -0.128785   0.068973  -0.014930
     8  C    0.325753  13.805494  -1.678246  -0.677090   0.394250  -1.192273
     9  C   -0.189468  -1.678246  10.304589  -3.810436  -0.171164  -1.992669
    10  C   -0.128785  -0.677090  -3.810436  13.885549  -0.572794   0.047319
    11  C    0.068973   0.394250  -0.171164  -0.572794   8.273508  -1.000732
    12  C   -0.014930  -1.192273  -1.992669   0.047319  -1.000732  14.919234
    13  C    0.014134  -2.427038   1.761949  -0.957402  -0.796483  -3.887589
    14  H    0.000007  -0.000043   0.000005  -0.000002  -0.000000  -0.000000
    15  H    0.000014   0.000017  -0.000025   0.000001   0.000000   0.000000
    16  H    0.000016   0.000019  -0.000017  -0.000000   0.000000   0.000000
    17  H    0.000004  -0.000573  -0.000042   0.000063  -0.000001   0.000001
    18  H   -0.000084  -0.000602  -0.000160   0.000088   0.000001   0.000001
    19  H   -0.000814  -0.004561   0.002379  -0.000639  -0.000026   0.000007
    20  H   -0.000812  -0.003938   0.001675  -0.000310  -0.000027   0.000012
    21  H    0.027211   0.018003  -0.005244   0.005745  -0.000160   0.000037
    22  H   -0.006679  -0.034539   0.401264   0.015043  -0.022184  -0.053702
    23  H    0.001446  -0.093535   0.001614   0.506009  -0.110816   0.003645
    24  H    0.000734   0.028421  -0.000449  -0.081963   0.270235  -0.013840
    25  Cl  -0.001000  -0.009249   0.016429   0.091447  -0.076613  -0.339348
    26  C    0.010276  -0.836298  -0.305683   0.705021  -0.124198  -0.354592
    27  F   -0.000446   0.101648   0.059649  -0.001589   0.016724  -0.020432
    28  F    0.000209   0.037136   0.043622  -0.014130  -0.003337  -0.244503
    29  F    0.000218   0.038812   0.045327  -0.017187   0.000697  -0.244262
              13         14         15         16         17         18
     1  C    0.000522   0.413036   0.416375   0.415321  -0.036493  -0.034938
     2  C    0.001206  -0.088290  -0.064247  -0.064312   0.426895   0.425093
     3  C    0.023783   0.027618  -0.008281  -0.007686  -0.075440  -0.072078
     4  N    0.037358   0.000442   0.000361   0.000378   0.005791   0.005678
     5  C    0.260046  -0.002064  -0.000086   0.000419  -0.005321  -0.008159
     6  O    0.041156   0.000006  -0.000052  -0.000050  -0.000194  -0.000191
     7  N    0.014134   0.000007   0.000014   0.000016   0.000004  -0.000084
     8  C   -2.427038  -0.000043   0.000017   0.000019  -0.000573  -0.000602
     9  C    1.761949   0.000005  -0.000025  -0.000017  -0.000042  -0.000160
    10  C   -0.957402  -0.000002   0.000001  -0.000000   0.000063   0.000088
    11  C   -0.796483  -0.000000   0.000000   0.000000  -0.000001   0.000001
    12  C   -3.887589  -0.000000   0.000000   0.000000   0.000001   0.000001
    13  C   14.320791  -0.000000   0.000001   0.000001  -0.000001  -0.000004
    14  H   -0.000000   0.484516  -0.024063  -0.024050  -0.003001  -0.002981
    15  H    0.000001  -0.024063   0.488880  -0.028500  -0.004575   0.003814
    16  H    0.000001  -0.024050  -0.028500   0.488793   0.003814  -0.004588
    17  H   -0.000001  -0.003001  -0.004575   0.003814   0.494644  -0.031046
    18  H   -0.000004  -0.002981   0.003814  -0.004588  -0.031046   0.494673
    19  H    0.000067  -0.000058  -0.000329   0.002660   0.003842  -0.005626
    20  H    0.000045  -0.000058   0.002675  -0.000324  -0.005669   0.003850
    21  H   -0.000816  -0.000003  -0.000000  -0.000000   0.000475   0.000473
    22  H   -0.032374  -0.000000   0.000000   0.000000   0.000000   0.000000
    23  H    0.018514  -0.000000  -0.000000  -0.000000  -0.000000  -0.000000
    24  H    0.109216  -0.000000   0.000000   0.000000   0.000000   0.000000
    25  Cl   0.009949  -0.000000  -0.000000  -0.000000  -0.000000  -0.000000
    26  C   -1.655046  -0.000000  -0.000000  -0.000000  -0.000000  -0.000000
    27  F   -0.216896   0.000000  -0.000000   0.000000  -0.000000  -0.000000
    28  F    0.260620  -0.000000  -0.000000   0.000000   0.000000  -0.000000
    29  F    0.259705  -0.000000   0.000000  -0.000000  -0.000000   0.000000
              19         20         21         22         23         24
     1  C    0.002985   0.003131  -0.004200  -0.000000  -0.000000   0.000000
     2  C   -0.042373  -0.042698   0.004503  -0.000012   0.000034   0.000000
     3  C    0.430706   0.431956  -0.082750   0.004428  -0.000916   0.000022
     4  N   -0.058005  -0.058324   0.244493   0.000770  -0.000024   0.000016
     5  C   -0.027055  -0.028046   0.031432   0.018944  -0.024738   0.002702
     6  O    0.003190   0.003196   0.011068  -0.002674   0.000126   0.000000
     7  N   -0.000814  -0.000812   0.027211  -0.006679   0.001446   0.000734
     8  C   -0.004561  -0.003938   0.018003  -0.034539  -0.093535   0.028421
     9  C    0.002379   0.001675  -0.005244   0.401264   0.001614  -0.000449
    10  C   -0.000639  -0.000310   0.005745   0.015043   0.506009  -0.081963
    11  C   -0.000026  -0.000027  -0.000160  -0.022184  -0.110816   0.270235
    12  C    0.000007   0.000012   0.000037  -0.053702   0.003645  -0.013840
    13  C    0.000067   0.000045  -0.000816  -0.032374   0.018514   0.109216
    14  H   -0.000058  -0.000058  -0.000003  -0.000000  -0.000000  -0.000000
    15  H   -0.000329   0.002675  -0.000000   0.000000  -0.000000   0.000000
    16  H    0.002660  -0.000324  -0.000000   0.000000  -0.000000   0.000000
    17  H    0.003842  -0.005669   0.000475   0.000000  -0.000000   0.000000
    18  H   -0.005626   0.003850   0.000473   0.000000  -0.000000   0.000000
    19  H    0.516286  -0.042410   0.002139   0.000000  -0.000000  -0.000000
    20  H   -0.042410   0.516319   0.002146  -0.000000  -0.000000  -0.000000
    21  H    0.002139   0.002146   0.279471  -0.000000   0.000003  -0.000000
    22  H    0.000000  -0.000000  -0.000000   0.430801  -0.000109   0.000010
    23  H   -0.000000  -0.000000   0.000003  -0.000109   0.446171  -0.003476
    24  H   -0.000000  -0.000000  -0.000000   0.000010  -0.003476   0.425269
    25  Cl  -0.000000  -0.000000   0.000000   0.000498   0.000301   0.000590
    26  C   -0.000010  -0.000009  -0.000016  -0.004572   0.005348  -0.002279
    27  F   -0.000000  -0.000000   0.000000   0.008014  -0.000001   0.000011
    28  F   -0.000000   0.000000  -0.000000  -0.000095   0.000001  -0.000003
    29  F    0.000000  -0.000000  -0.000000  -0.000084   0.000001  -0.000004
              25         26         27         28         29
     1  C   -0.000001  -0.000057   0.000000   0.000000   0.000000
     2  C    0.000006   0.000484   0.000003  -0.000000  -0.000000
     3  C   -0.000208  -0.012501   0.000267   0.000013   0.000025
     4  N    0.000011   0.000024  -0.000046  -0.000002   0.000000
     5  C   -0.009918  -0.188239   0.005656   0.001771   0.002395
     6  O    0.000069   0.001494  -0.000857  -0.000022  -0.000023
     7  N   -0.001000   0.010276  -0.000446   0.000209   0.000218
     8  C   -0.009249  -0.836298   0.101648   0.037136   0.038812
     9  C    0.016429  -0.305683   0.059649   0.043622   0.045327
    10  C    0.091447   0.705021  -0.001589  -0.014130  -0.017187
    11  C   -0.076613  -0.124198   0.016724  -0.003337   0.000697
    12  C   -0.339348  -0.354592  -0.020432  -0.244503  -0.244262
    13  C    0.009949  -1.655046  -0.216896   0.260620   0.259705
    14  H   -0.000000  -0.000000   0.000000  -0.000000  -0.000000
    15  H   -0.000000  -0.000000  -0.000000  -0.000000   0.000000
    16  H   -0.000000  -0.000000   0.000000   0.000000  -0.000000
    17  H   -0.000000  -0.000000  -0.000000   0.000000  -0.000000
    18  H   -0.000000  -0.000000  -0.000000  -0.000000   0.000000
    19  H   -0.000000  -0.000010  -0.000000  -0.000000   0.000000
    20  H   -0.000000  -0.000009  -0.000000   0.000000  -0.000000
    21  H    0.000000  -0.000016   0.000000  -0.000000  -0.000000
    22  H    0.000498  -0.004572   0.008014  -0.000095  -0.000084
    23  H    0.000301   0.005348  -0.000001   0.000001   0.000001
    24  H    0.000590  -0.002279   0.000011  -0.000003  -0.000004
    25  Cl  17.099700   0.019782   0.000433  -0.001037  -0.001451
    26  C    0.019782   7.212262   0.169427   0.041622   0.037736
    27  F    0.000433   0.169427   9.290297  -0.036025  -0.036148
    28  F   -0.001037   0.041622  -0.036025   9.246325  -0.049756
    29  F   -0.001451   0.037736  -0.036148  -0.049756   9.246278
 Mulliken charges:
               1
     1  C   -0.723797
     2  C   -0.371933
     3  C   -0.181851
     4  N   -0.706454
     5  C    0.790539
     6  O   -0.828597
     7  N   -0.697280
     8  C   -0.083550
     9  C    0.304784
    10  C   -0.908338
    11  C   -0.195409
    12  C    0.369614
    13  C   -1.145415
    14  H    0.218984
    15  H    0.218023
    16  H    0.218107
    17  H    0.226827
    18  H    0.226788
    19  H    0.217643
    20  H    0.217623
    21  H    0.465991
    22  H    0.277252
    23  H    0.250402
    24  H    0.264788
    25  Cl   0.199611
    26  C    1.280026
    27  F   -0.339688
    28  F   -0.282408
    29  F   -0.282279
 Sum of Mulliken charges =  -1.00000
 Mulliken charges with hydrogens summed into heavy atoms:
               1
     1  C   -0.068684
     2  C    0.081682
     3  C    0.253414
     4  N   -0.240463
     5  C    0.790539
     6  O   -0.828597
     7  N   -0.697280
     8  C   -0.083550
     9  C    0.582036
    10  C   -0.657936
    11  C    0.069379
    12  C    0.369614
    13  C   -1.145415
    25  Cl   0.199611
    26  C    1.280026
    27  F   -0.339688
    28  F   -0.282408
    29  F   -0.282279
 APT charges:
               1
     1  C   -2.679535
     2  C   -0.721724
     3  C   -0.200233
     4  N   -0.314757
     5  C    0.682021
     6  O   -0.895302
     7  N   -1.033514
     8  C   -0.918555
     9  C   -0.366922
    10  C   -0.763620
    11  C   -0.570108
    12  C    1.721724
    13  C   -0.830132
    14  H    1.170812
    15  H    0.348645
    16  H    0.358367
    17  H    0.501913
    18  H    0.511184
    19  H    0.347883
    20  H    0.341652
    21  H    0.832862
    22  H    0.395297
    23  H    0.671133
    24  H    0.894184
    25  Cl  -0.185295
    26  C    0.141015
    27  F   -0.306892
    28  F   -0.065939
    29  F   -0.066164
 Sum of APT charges =  -1.00000
 APT charges with hydrogens summed into heavy atoms:
               1
     1  C   -0.801711
     2  C    0.291372
     3  C    0.489302
     4  N    0.518105
     5  C    0.682021
     6  O   -0.895302
     7  N   -1.033514
     8  C   -0.918555
     9  C    0.028374
    10  C   -0.092487
    11  C    0.324076
    12  C    1.721724
    13  C   -0.830132
    25  Cl  -0.185295
    26  C    0.141015
    27  F   -0.306892
    28  F   -0.065939
    29  F   -0.066164
 Electronic spatial extent (au):  <R**2>=           8328.2014
 Charge=             -1.0000 electrons
 Dipole moment (field-independent basis, Debye):
    X=              1.2528    Y=             -2.0940    Z=              0.0878  Tot=              2.4417
 Quadrupole moment (field-independent basis, Debye-Ang):
   XX=           -127.9417   YY=           -120.8490   ZZ=           -118.5294
   XY=              1.0276   XZ=              0.2616   YZ=              0.1402
 Traceless Quadrupole moment (field-independent basis, Debye-Ang):
   XX=             -5.5017   YY=              1.5910   ZZ=              3.9106
   XY=              1.0276   XZ=              0.2616   YZ=              0.1402
 Octapole moment (field-independent basis, Debye-Ang**2):
  XXX=            108.4629  YYY=             13.0800  ZZZ=             -0.0292  XYY=            -30.0282
  XXY=            -20.9713  XXZ=              0.8144  XZZ=            -10.9827  YZZ=             18.5612
  YYZ=              0.1931  XYZ=              0.2057
 Hexadecapole moment (field-independent basis, Debye-Ang**3):
 XXXX=          -9112.0198 YYYY=          -1278.9878 ZZZZ=           -225.6355 XXXY=           -208.1882
 XXXZ=              3.6080 YYYX=            -50.8221 YYYZ=              0.5528 ZZZX=             -0.5829
 ZZZY=              0.1622 XXYY=          -1811.0574 XXZZ=          -1623.8071 YYZZ=           -273.8285
 XXYZ=              0.2308 YYXZ=              0.8649 ZZXY=            -22.2897
 N-N= 1.406640653348D+03 E-N=-6.058410636233D+03  KE= 1.360854822079D+03
  Exact polarizability:   0.000   0.000   0.000   0.000   0.000   0.000
 Approx polarizability: 268.381   6.084 205.629   0.148  -0.207 140.505
 D2PCM: PCM CHGder 2nd derivatives, FixD1E=F FixD2E=F DoIter=F DoCFld=F I1PDM=0
 Calling FoFJK, ICntrl=    100147 FMM=F ISym2X=0 I1Cent= 0 IOpClX= 0 NMat=1 NMatS=1 NMatT=0.
 ***** Axes restored to original set *****
 -------------------------------------------------------------------
 Center     Atomic                   Forces (Hartrees/Bohr)
 Number     Number              X              Y              Z
 -------------------------------------------------------------------
      1        6          -0.005285727    0.000977698   -0.000154713
      2        6           0.004037026   -0.003782555    0.000553682
      3        6          -0.002513753    0.002532563   -0.000453057
      4        7           0.001544988   -0.029757608    0.004733019
      5        6           0.054943084   -0.032480231    0.005174059
      6        8          -0.019533779    0.071997423   -0.011579974
      7        7           0.018623935   -0.025142521    0.004111835
      8        6          -0.063512945    0.001170667   -0.000328165
      9        6           0.024130490    0.005131732   -0.000915425
     10        6           0.008069439    0.004048934   -0.000632327
     11        6          -0.006731724    0.002161864   -0.000486538
     12        6          -0.002156610    0.006895672   -0.001275422
     13        6          -0.004096505   -0.011445879    0.002061125
     14        1           0.005616641    0.009106428   -0.001364741
     15        1          -0.000827124   -0.003287095    0.009666902
     16        1          -0.000748115   -0.006055553   -0.008226351
     17        1           0.001183042    0.005056670    0.008509397
     18        1           0.001285578    0.002241753   -0.009575474
     19        1          -0.000656029   -0.004367342   -0.009015563
     20        1          -0.000630744   -0.001336461    0.009923739
     21        1          -0.000175199    0.016891229   -0.002672638
     22        1          -0.007437858    0.001519736   -0.000260657
     23        1          -0.002731712   -0.001359601    0.000235064
     24        1           0.002314796   -0.000260893    0.000064326
     25       17          -0.004347482   -0.000626136    0.000112810
     26        6          -0.004255369   -0.005312904    0.000919040
     27        9           0.036661427   -0.014661405    0.002891766
     28        9          -0.016520695    0.010682169    0.029489508
     29        9          -0.016249078   -0.000538354   -0.031505227
 -------------------------------------------------------------------
 Cartesian Forces:  Max     0.071997423 RMS     0.015901771
 FormGI is forming the generalized inverse of G from B-inverse, IUseBI=4.
 GSVD:  received Info=                   1 from GESDD.

 GradGradGradGradGradGradGradGradGradGradGradGradGradGradGradGradGradGrad
 Berny optimization.
 Internal  Forces:  Max     0.073564210 RMS     0.011928087
 Search for a local minimum.
 Step number   1 out of a maximum of  150
 All quantities printed in internal units (Hartrees-Bohrs-Radians)
 Mixed Optimization -- RFO/linear search
 Second derivative matrix not updated -- analytic derivatives used.
 ITU=  0
     Eigenvalues ---   -0.00523  -0.00192   0.00138   0.00209   0.00323
     Eigenvalues ---    0.00533   0.00795   0.01198   0.01516   0.01702
     Eigenvalues ---    0.01855   0.02056   0.02250   0.02371   0.02691
     Eigenvalues ---    0.02821   0.03177   0.03641   0.03876   0.04524
     Eigenvalues ---    0.04553   0.04594   0.05117   0.06765   0.08120
     Eigenvalues ---    0.08383   0.10181   0.10532   0.10587   0.10957
     Eigenvalues ---    0.11127   0.11421   0.11978   0.12652   0.13238
     Eigenvalues ---    0.13566   0.15101   0.15693   0.15983   0.16950
     Eigenvalues ---    0.18254   0.18573   0.18932   0.19203   0.21512
     Eigenvalues ---    0.21959   0.23099   0.23280   0.23849   0.24107
     Eigenvalues ---    0.25594   0.26869   0.29638   0.29863   0.30412
     Eigenvalues ---    0.30424   0.30821   0.30937   0.31197   0.31360
     Eigenvalues ---    0.31453   0.31630   0.32037   0.32765   0.33064
     Eigenvalues ---    0.36716   0.37613   0.37749   0.37916   0.38933
     Eigenvalues ---    0.40545   0.41354   0.42281   0.42894   0.44515
     Eigenvalues ---    0.45987   0.47535   0.49791   0.50258   0.62210
     Eigenvalues ---    0.88738
 RFO step:  Lambda=-4.23280463D-02 EMin=-5.22662255D-03
 Linear search not attempted -- first point.
 Maximum step size (   0.300) exceeded in Quadratic search.
    -- Step size scaled by   0.888
 Iteration  1 RMS(Cart)=  0.19380190 RMS(Int)=  0.04610072
 Iteration  2 RMS(Cart)=  0.17673340 RMS(Int)=  0.02092152
 Iteration  3 RMS(Cart)=  0.07642081 RMS(Int)=  0.00238452
 Iteration  4 RMS(Cart)=  0.00415533 RMS(Int)=  0.00066211
 Iteration  5 RMS(Cart)=  0.00001044 RMS(Int)=  0.00066210
 Iteration  6 RMS(Cart)=  0.00000000 RMS(Int)=  0.00066210
 Variable       Old X    -DE/DX   Delta X   Delta X   Delta X     New X
                                 (Linear)    (Quad)   (Total)
    R1        2.88355   0.00144   0.00000   0.00177   0.00177   2.88532
    R2        2.09830  -0.01042   0.00000  -0.02504  -0.02504   2.07326
    R3        2.09930  -0.01000   0.00000  -0.02357  -0.02357   2.07573
    R4        2.09926  -0.00999   0.00000  -0.02364  -0.02364   2.07562
    R5        2.89699  -0.00678   0.00000  -0.01604  -0.01604   2.88095
    R6        2.10115  -0.00950   0.00000  -0.02320  -0.02320   2.07795
    R7        2.10103  -0.00946   0.00000  -0.02310  -0.02310   2.07793
    R8        2.74533  -0.00081   0.00000  -0.00193  -0.00193   2.74340
    R9        2.10232  -0.00943   0.00000  -0.02337  -0.02337   2.07895
   R10        2.10229  -0.00942   0.00000  -0.02136  -0.02136   2.08093
   R11        2.57629   0.00377   0.00000   0.01250   0.01250   2.58879
   R12        1.95073  -0.01710   0.00000  -0.03380  -0.03380   1.91694
   R13        2.30646   0.07356   0.00000   0.06540   0.06540   2.37186
   R14        2.58800  -0.01956   0.00000  -0.04060  -0.04060   2.54740
   R15        2.72230  -0.05356   0.00000  -0.12997  -0.12997   2.59233
   R16        2.67734  -0.00330   0.00000   0.00625   0.00641   2.68375
   R17        2.65637   0.00072   0.00000   0.01902   0.01912   2.67549
   R18        2.66834  -0.01459   0.00000  -0.02744  -0.02739   2.64095
   R19        2.02476   0.00644   0.00000   0.01200   0.01200   2.03676
   R20        2.63202  -0.00428   0.00000  -0.01180  -0.01185   2.62017
   R21        2.04671   0.00183   0.00000   0.00494   0.00494   2.05165
   R22        2.63470  -0.00379   0.00000  -0.00281  -0.00297   2.63173
   R23        2.04631   0.00190   0.00000   0.00460   0.00460   2.05090
   R24        2.66623  -0.01221   0.00000  -0.02532  -0.02544   2.64079
   R25        3.32990  -0.00436   0.00000  -0.01451  -0.01451   3.31539
   R26        2.86478  -0.00986   0.00000  -0.01940  -0.01940   2.84538
   R27        2.61617  -0.03877   0.00000  -0.07283  -0.07283   2.54334
   R28        2.61391  -0.03276   0.00000  -0.05978  -0.05978   2.55414
   R29        2.61384  -0.03277   0.00000  -0.05881  -0.05881   2.55503
    A1        1.91262   0.00332   0.00000   0.01770   0.01760   1.93021
    A2        1.92587   0.00200   0.00000   0.00832   0.00826   1.93413
    A3        1.92569   0.00203   0.00000   0.00640   0.00636   1.93205
    A4        1.89665  -0.00245   0.00000  -0.00892  -0.00903   1.88762
    A5        1.89682  -0.00247   0.00000  -0.00947  -0.00955   1.88727
    A6        1.90569  -0.00258   0.00000  -0.01463  -0.01463   1.89106
    A7        1.94132  -0.00067   0.00000  -0.00059  -0.00059   1.94073
    A8        1.90094   0.00152   0.00000   0.00914   0.00914   1.91008
    A9        1.90128   0.00151   0.00000   0.00939   0.00938   1.91066
   A10        1.91011  -0.00044   0.00000  -0.00481  -0.00482   1.90528
   A11        1.91122  -0.00047   0.00000   0.00064   0.00061   1.91183
   A12        1.89845  -0.00146   0.00000  -0.01404  -0.01408   1.88436
   A13        1.93760  -0.00360   0.00000  -0.00591  -0.00590   1.93170
   A14        1.90646   0.00088   0.00000   0.00605   0.00605   1.91251
   A15        1.90469   0.00102   0.00000   0.00254   0.00255   1.90724
   A16        1.90614   0.00211   0.00000   0.00500   0.00501   1.91115
   A17        1.90621   0.00203   0.00000   0.01190   0.01190   1.91811
   A18        1.90241  -0.00245   0.00000  -0.01997  -0.01997   1.88245
   A19        2.12684   0.00091   0.00000   0.01343   0.00980   2.13664
   A20        2.07742  -0.00002   0.00000   0.00138  -0.00235   2.07507
   A21        2.07893  -0.00090   0.00000  -0.01504  -0.01862   2.06030
   A22        2.08030  -0.00240   0.00000  -0.01386  -0.01428   2.06602
   A23        2.08439  -0.03432   0.00000  -0.08044  -0.08090   2.00349
   A24        2.11849   0.03672   0.00000   0.09427   0.09375   2.21224
   A25        2.23780  -0.04084   0.00000  -0.08969  -0.08969   2.14811
   A26        2.17566   0.00785   0.00000   0.04718   0.04607   2.22172
   A27        2.04983  -0.00379   0.00000  -0.01487  -0.01574   2.03409
   A28        2.05770  -0.00406   0.00000  -0.03245  -0.03278   2.02492
   A29        2.11617  -0.00000   0.00000   0.00508   0.00531   2.12149
   A30        2.12180  -0.00409   0.00000  -0.02439  -0.02462   2.09718
   A31        2.04521   0.00409   0.00000   0.01926   0.01899   2.06420
   A32        2.11722   0.00078   0.00000   0.02058   0.02074   2.13795
   A33        2.09941  -0.00290   0.00000  -0.02702  -0.02710   2.07231
   A34        2.06655   0.00212   0.00000   0.00645   0.00637   2.07292
   A35        2.10369  -0.00124   0.00000  -0.00490  -0.00500   2.09869
   A36        2.08358   0.00200   0.00000   0.00960   0.00965   2.09323
   A37        2.09592  -0.00077   0.00000  -0.00470  -0.00465   2.09126
   A38        2.09427  -0.00213   0.00000  -0.01300  -0.01317   2.08110
   A39        2.05767   0.00203   0.00000   0.01164   0.01173   2.06940
   A40        2.13124   0.00010   0.00000   0.00135   0.00144   2.13268
   A41        2.07732   0.00664   0.00000   0.02467   0.02472   2.10204
   A42        2.10634  -0.00760   0.00000  -0.02780  -0.02783   2.07851
   A43        2.09952   0.00095   0.00000   0.00312   0.00309   2.10261
   A44        1.95786   0.00650   0.00000   0.00937   0.00912   1.96698
   A45        1.91260   0.01889   0.00000   0.04072   0.04014   1.95274
   A46        1.91287   0.01887   0.00000   0.04371   0.04313   1.95600
   A47        1.88695  -0.01405   0.00000  -0.02576  -0.02599   1.86096
   A48        1.88706  -0.01408   0.00000  -0.02945  -0.02967   1.85739
   A49        1.90564  -0.01775   0.00000  -0.04212  -0.04294   1.86270
    D1        3.13990   0.00002   0.00000  -0.00678  -0.00678   3.13312
    D2        1.03325  -0.00001   0.00000  -0.00642  -0.00641   1.02684
    D3       -1.03503   0.00000   0.00000  -0.00019  -0.00018  -1.03522
    D4        1.05207  -0.00029   0.00000  -0.01207  -0.01210   1.03996
    D5       -1.05458  -0.00032   0.00000  -0.01171  -0.01173  -1.06632
    D6       -3.12286  -0.00030   0.00000  -0.00548  -0.00551  -3.12837
    D7       -1.05536   0.00032   0.00000  -0.00337  -0.00335  -1.05872
    D8        3.12117   0.00029   0.00000  -0.00301  -0.00298   3.11819
    D9        1.05289   0.00030   0.00000   0.00322   0.00324   1.05614
   D10       -3.14154  -0.00002   0.00000  -0.01097  -0.01097   3.13068
   D11        1.03867  -0.00094   0.00000  -0.01739  -0.01739   1.02128
   D12       -1.03962   0.00091   0.00000   0.00175   0.00175  -1.03787
   D13       -1.04029   0.00117   0.00000  -0.00310  -0.00311  -1.04340
   D14        3.13992   0.00024   0.00000  -0.00953  -0.00954   3.13038
   D15        1.06163   0.00209   0.00000   0.00962   0.00961   1.07124
   D16        1.03925  -0.00116   0.00000  -0.02274  -0.02273   1.01652
   D17       -1.06373  -0.00208   0.00000  -0.02916  -0.02915  -1.09289
   D18        3.14116  -0.00024   0.00000  -0.01002  -0.01001   3.13115
   D19        3.13595   0.00006   0.00000  -0.08968  -0.08987   3.04608
   D20       -0.00403   0.00004   0.00000   0.07160   0.07179   0.06775
   D21       -1.04406   0.00025   0.00000  -0.08264  -0.08282  -1.12689
   D22        2.09914   0.00023   0.00000   0.07865   0.07883   2.17797
   D23        1.03493  -0.00026   0.00000  -0.09685  -0.09704   0.93789
   D24       -2.10505  -0.00028   0.00000   0.06443   0.06461  -2.04043
   D25        0.00014   0.00003   0.00000   0.07434   0.07310   0.07324
   D26        3.14105  -0.00004   0.00000   0.02005   0.02023  -3.12190
   D27        3.14012   0.00005   0.00000  -0.08706  -0.08724   3.05288
   D28       -0.00215  -0.00002   0.00000  -0.14135  -0.14011  -0.14226
   D29        3.13681  -0.00000   0.00000  -0.21082  -0.20954   2.92727
   D30       -0.00547  -0.00009   0.00000  -0.26638  -0.26765  -0.27313
   D31       -0.01765  -0.00006   0.00000  -0.50105  -0.50182  -0.51948
   D32        3.12624  -0.00004   0.00000  -0.42613  -0.42536   2.70088
   D33       -3.13958   0.00001   0.00000   0.07404   0.07499  -3.06459
   D34       -0.00028   0.00005   0.00000   0.04884   0.04985   0.04957
   D35       -0.00030  -0.00000   0.00000  -0.00117  -0.00110  -0.00141
   D36        3.13900   0.00003   0.00000  -0.02637  -0.02625   3.11275
   D37        3.14044  -0.00001   0.00000  -0.05755  -0.05586   3.08458
   D38       -0.00159  -0.00000   0.00000  -0.05736  -0.05591  -0.05749
   D39        0.00099  -0.00001   0.00000   0.01208   0.01171   0.01270
   D40       -3.14104  -0.00000   0.00000   0.01226   0.01166  -3.12937
   D41       -0.00051   0.00001   0.00000  -0.01398  -0.01391  -0.01441
   D42        3.14032   0.00001   0.00000  -0.02035  -0.02041   3.11991
   D43       -3.13991  -0.00002   0.00000   0.01021   0.01084  -3.12907
   D44        0.00092  -0.00001   0.00000   0.00383   0.00434   0.00525
   D45       -0.00086   0.00001   0.00000  -0.00760  -0.00728  -0.00814
   D46        3.14116  -0.00000   0.00000  -0.00989  -0.00982   3.13134
   D47        3.14116   0.00001   0.00000  -0.00778  -0.00723   3.13393
   D48       -0.00001  -0.00001   0.00000  -0.01007  -0.00977  -0.00978
   D49        0.00001  -0.00001   0.00000  -0.00810  -0.00815  -0.00813
   D50       -3.14096  -0.00002   0.00000  -0.00457  -0.00462   3.13761
   D51        3.14118   0.00001   0.00000  -0.00579  -0.00561   3.13557
   D52        0.00020  -0.00001   0.00000  -0.00226  -0.00207  -0.00187
   D53        0.00065   0.00000   0.00000   0.01859   0.01852   0.01917
   D54       -3.14017  -0.00000   0.00000   0.02495   0.02512  -3.11505
   D55       -3.14158   0.00002   0.00000   0.01491   0.01486  -3.12673
   D56        0.00077   0.00001   0.00000   0.02127   0.02146   0.02223
   D57        0.00041   0.00001   0.00000  -0.00008  -0.00005   0.00036
   D58       -2.09559   0.00070   0.00000  -0.00128  -0.00102  -2.09662
   D59        2.09673  -0.00072   0.00000  -0.00147  -0.00168   2.09505
   D60        3.14122   0.00002   0.00000  -0.00652  -0.00654   3.13468
   D61        1.04522   0.00071   0.00000  -0.00773  -0.00752   1.03770
   D62       -1.04564  -0.00071   0.00000  -0.00792  -0.00818  -1.05381
         Item               Value     Threshold  Converged?
 Maximum Force            0.073564     0.000450     NO 
 RMS     Force            0.011928     0.000300     NO 
 Maximum Displacement     1.879750     0.001800     NO 
 RMS     Displacement     0.412710     0.001200     NO 
 Predicted change in Energy=-2.414444D-02
 GradGradGradGradGradGradGradGradGradGradGradGradGradGradGradGradGradGrad

                          Input orientation:                          
 ---------------------------------------------------------------------
 Center     Atomic      Atomic             Coordinates (Angstroms)
 Number     Number       Type             X           Y           Z
 ---------------------------------------------------------------------
      1          6           0       -1.891860    2.166647   -0.130711
      2          6           0       -0.509890    1.539206   -0.297227
      3          6           0        0.587771    2.495312    0.155769
      4          7           0        1.895282    1.882382    0.006459
      5          6           0        3.058530    2.567644    0.238792
      6          8           0        2.981943    3.743809    0.670221
      7          7           0        4.184683    1.856552    0.030695
      8          6           0        5.430595    2.427592   -0.028131
      9          6           0        5.756376    3.738990   -0.465183
     10          6           0        6.525698    1.591915    0.298837
     11          6           0        7.841356    2.021692    0.216280
     12          6           0        8.131274    3.315478   -0.209804
     13          6           0        7.082479    4.169407   -0.561504
     14          1           0       -2.673244    1.474012   -0.467416
     15          1           0       -1.975232    3.089507   -0.720563
     16          1           0       -2.082760    2.411263    0.922921
     17          1           0       -0.350154    1.280946   -1.354070
     18          1           0       -0.455254    0.611543    0.290619
     19          1           0        0.427895    2.767362    1.209679
     20          1           0        0.535868    3.418151   -0.442787
[...]
 0000428,0.00000489,0.,-0.00000240,-0.00000992,0.00000390,-0.00001162,-
 0.00046959,-0.00077706,0.00008018,0.04369390,0.33971743,-0.00000248,-0
 .00000432,-0.00000231,-0.00000196,0.00001378,0.00000371,0.00004328,-0.
 00002817,0.00004751,-0.00024953,-0.00020645,0.00019914,0.00074243,-0.0
 0056845,-0.00086531,0.00002848,0.00020786,0.00010169,0.00083151,-0.000
 42725,-0.00254310,0.00064541,0.00529550,0.00418752,-0.00089489,0.00180
 249,0.00519134,0.00933369,0.07363209,-0.05654424,-0.00004776,0.0016080
 0,0.00284573,0.00001276,0.00124380,0.00707505,-0.00029122,-0.00010331,
 -0.00038903,-0.00000284,0.00000074,-0.00000061,-0.00000094,0.00000079,
 -0.00000038,0.00000037,-0.00000010,-0.00000011,0.00000073,-0.00000182,
 -0.00000138,0.00000028,-0.00000004,0.00000067,-0.00002174,0.00000417,-
 0.00000603,-0.00000604,0.00001120,-0.00001171,-0.00000446,0.00007263,-
 0.00002207,0.00001411,-0.00000504,-0.00072558,-0.01034668,-0.08113892,
 0.04626248,-0.00000748,-0.00001400,-0.00000274,-0.00001447,0.00003547,
 0.00000038,0.00005051,-0.00009140,-0.00000822,-0.00041494,-0.00000497,
 0.00014723,0.00036079,-0.00068747,-0.00045322,-0.00013112,0.00037397,0
 .00017094,-0.00175662,0.00099334,0.00007539,-0.00164361,-0.00325039,0.
 00051547,-0.00046421,-0.00086766,0.00028796,-0.01700769,0.01825375,-0.
 00572319,-0.23345200,0.13915311,-0.04428076,0.00547355,-0.00607155,0.0
 0166718,0.00089173,-0.00134825,0.00018357,-0.00000709,0.00000226,-0.00
 000083,-0.00000059,0.00000083,-0.00000051,-0.00000016,0.00000088,0.000
 00083,0.00000044,-0.00000228,-0.00000167,0.00000077,-0.00000183,0.0000
 0169,-0.00001366,0.00000989,0.00000085,-0.00001934,0.00001859,-0.00001
 311,0.00001515,0.00004469,-0.00000997,0.00004034,0.00012835,-0.0000289
 2,0.00133003,0.00002310,0.00016173,0.24459938,-0.00000138,-0.00000175,
 0.,-0.00000377,0.00000393,0.00000063,-0.00000771,-0.00001891,0.0000109
 3,-0.00002903,0.00005100,0.00002781,-0.00029130,0.00002876,-0.00016382
 ,-0.00000783,-0.00005106,0.00001020,-0.00005852,0.00053185,-0.00003229
 ,-0.00289985,-0.00010312,0.00193893,-0.00089275,-0.00015523,-0.0002317
 6,-0.01021048,0.01146952,-0.00229512,0.13671732,-0.16401215,0.03847043
 ,0.02286041,-0.01385326,0.00532777,-0.00241900,-0.00438799,0.00250764,
 -0.00000062,0.00000042,-0.00000013,-0.00000005,0.00000007,-0.00000004,
 0.00000013,-0.00000008,-0.00000005,0.00000020,-0.00000013,-0.00000018,
 0.00000015,0.00000017,-0.00000011,-0.00000076,0.00000053,-0.00000007,0
 .00000368,0.00000082,-0.00000061,0.00000765,-0.00000096,0.00000004,0.0
 0009245,0.00003201,-0.00012295,0.00049250,0.00035088,-0.00133806,-0.14
 570253,0.16958069,-0.00000057,-0.00000139,-0.00000073,0.00000099,0.000
 00412,0.00000173,0.00001153,-0.00000678,0.00000316,-0.00006412,-0.0000
 4581,0.00004550,0.00017136,-0.00004315,-0.00024722,-0.00003833,0.00001
 616,0.00003917,-0.00006023,-0.00000873,-0.00027154,0.00039807,0.002257
 33,0.00724421,0.00007113,-0.00060139,-0.00086510,0.00230861,-0.0012369
 7,0.00491389,-0.04366275,0.03852056,-0.04953495,-0.00600127,0.00430041
 ,0.00189190,0.00046905,0.00248799,0.00445576,-0.00000099,0.00000032,-0
 .00000018,-0.00000038,0.00000025,-0.00000017,0.00000002,-0.00000002,0.
 00000002,0.00000009,-0.00000071,-0.00000052,0.00000001,-0.00000020,0.0
 0000050,-0.00000401,0.00000215,-0.00000017,-0.00000497,0.00000242,-0.0
 0000358,0.00000322,0.00002173,-0.00000921,-0.00003223,-0.00015145,-0.0
 0044249,0.00007122,-0.00128651,-0.00434275,0.04684181,-0.04347100,0.03
 923236,-0.00002985,-0.00005443,-0.00001115,-0.00003480,0.00013756,-0.0
 0000690,0.00034474,-0.00030639,-0.00016240,-0.00200324,-0.00068532,0.0
 0056552,0.00457402,-0.00319836,-0.00076429,-0.00108382,0.00203621,0.00
 090308,-0.00759524,-0.00069996,-0.00025418,0.00479016,0.00347620,-0.00
 018554,-0.00303987,0.00294411,-0.00162154,0.00218527,-0.00179751,0.000
 68207,-0.02532292,-0.00973273,0.00150887,-0.15378548,-0.03820396,0.005
 56235,-0.03151732,-0.01572566,0.00290293,-0.00003026,0.00000904,-0.000
 00249,-0.00000307,0.00000281,-0.00000141,-0.00000194,0.00000429,0.0000
 0324,-0.00000070,-0.00000991,-0.00000491,0.00000194,-0.00001017,0.0000
 0662,-0.00006623,0.00004747,0.00000326,-0.00013870,0.00009457,-0.00006
 869,-0.00000437,0.00027151,-0.00006800,-0.00124631,-0.00124881,0.00016
 352,-0.00120488,-0.00037253,0.00002518,0.00164443,0.00105165,-0.000177
 80,0.21620943,-0.00000947,-0.00001718,-0.00000382,-0.00001205,0.000044
 40,-0.00000112,0.00010922,-0.00009717,-0.00004369,-0.00063145,-0.00020
 792,0.00022446,0.00140987,-0.00110615,-0.00034713,-0.00033052,0.000716
 02,0.00023547,-0.00246793,-0.00005508,-0.00016265,0.00073847,0.0025749
 6,-0.00077429,-0.00107253,-0.00345240,0.00184908,0.00368859,-0.0033453
 4,0.00231169,-0.03730312,-0.00980096,0.00206446,-0.03880906,-0.0508445
 0,0.00725317,0.00954459,0.00742668,-0.00132353,-0.00000946,0.00000288,
 -0.00000073,-0.00000113,0.00000107,-0.00000061,-0.00000046,0.00000130,
 0.00000118,-0.00000017,-0.00000344,-0.00000175,0.00000103,-0.00000274,
 0.00000170,-0.00002455,0.00001270,-0.00000198,-0.00004187,0.00003167,-
 0.00002442,0.00000581,0.00008456,-0.00001682,0.00036449,0.00021571,0.0
 0018232,-0.00132189,-0.00033774,0.00010915,-0.00066676,0.00085903,-0.0
 0099860,0.06077308,0.06227370,0.00000039,0.00000122,-0.00000025,0.0000
 0169,-0.00000219,-0.00000060,-0.00000676,0.00000969,0.00002064,0.00005
 635,-0.00000660,0.00006002,-0.00001769,0.00010327,-0.00018120,-0.00021
 935,-0.00006741,0.00014768,0.00026842,0.00014072,-0.00047244,0.0001861
 4,-0.00076202,-0.00063859,-0.00025067,0.00188753,0.00309250,-0.0009414
 9,0.00220582,0.00411552,0.00887624,0.00284408,0.00248653,0.00563599,0.
 00753201,-0.01990396,-0.00367199,-0.00237687,0.00194351,0.00000061,-0.
 00000026,-0.00000003,-0.00000014,0.,0.00000012,0.00000047,-0.00000007,
 -0.00000014,-0.00000094,-0.00000092,-0.00000030,0.00000012,0.00000059,
 -0.00000053,-0.00000248,-0.00000447,-0.00000740,0.00000587,-0.00000018
 ,-0.00000253,0.00000691,-0.00000812,0.00000665,-0.00009426,0.00010562,
 0.00073208,0.00030367,0.00014380,0.00020457,0.00037466,-0.00092278,-0.
 00258964,-0.00896283,-0.01136314,0.01409084,0.00000448,0.00000646,0.00
 000374,-0.00000147,-0.00001607,-0.00000190,-0.00004899,0.00003152,0.00
 002050,0.00022439,0.00020952,-0.00007294,-0.00040616,-0.00017897,-0.00
 010373,0.00053417,0.00016868,-0.00024971,0.00074596,-0.00095773,0.0004
 0004,-0.00660037,-0.00254410,-0.00006761,0.00217697,-0.02623309,0.0081
 2636,-0.00299324,0.00063635,-0.00025177,-0.00360747,0.00554541,-0.0018
 9827,0.01441280,0.02465265,-0.00642664,-0.09397471,-0.01226406,0.00236
 217,0.00000593,0.00000039,0.00000051,-0.00000105,-0.00000014,-0.000002
 25,-0.00000062,-0.00000157,0.00000037,0.00000200,0.00000146,0.00000191
 ,0.00000199,0.00000446,-0.00000300,0.00000856,-0.00000466,0.00000351,0
 .00001388,-0.00000521,-0.00000114,0.00002539,-0.00004348,0.00003058,-0
 .00273538,-0.00040319,0.00024001,-0.00010632,0.00014770,-0.00001414,0.
 00037190,0.00138783,-0.00033454,-0.00240918,-0.00143986,0.00046209,0.5
 2499869,0.00003694,0.00007127,0.00001283,0.00005079,-0.00017386,0.0000
 0921,-0.00041939,0.00041422,0.00018458,0.00244128,0.00068700,-0.000593
 97,-0.00532340,0.00318480,0.00119273,0.00198278,-0.00200004,-0.0013698
 4,0.00742430,0.00114239,-0.00054227,-0.00528404,0.00023800,0.00190379,
 -0.01692645,-0.00893858,0.00330586,0.00059105,0.00256888,-0.00120570,0
 .00199388,0.00360136,0.00035857,0.01403182,-0.01837129,0.00500310,-0.0
 1723822,-0.20564052,0.04020597,0.00003830,-0.00001289,0.00000345,0.000
 00414,-0.00000390,0.00000396,0.00000345,-0.00000562,-0.00000565,0.0000
 0125,0.00001164,0.00000391,-0.00000194,0.00001142,-0.00000686,0.000077
 94,-0.00005548,-0.00000622,0.00016500,-0.00012133,0.00008427,-0.000015
 86,-0.00029148,0.00006635,0.00168691,-0.00071544,-0.00091095,0.0000767
 5,0.00030317,-0.00024577,-0.00040263,0.00079968,0.00007011,-0.00465864
 ,-0.00321613,-0.00004906,-0.00144643,0.59692232,-0.00001060,-0.0000181
 9,-0.00000287,-0.00001418,0.00004574,-0.00000076,0.00009315,-0.0001060
 3,-0.00002869,-0.00064047,-0.00014481,0.00013438,0.00132827,-0.0007590
 1,-0.00026447,-0.00034315,0.00054673,0.00025161,-0.00175021,-0.0002952
 4,-0.00029037,0.00079705,0.00139384,0.00703350,0.00553033,0.00263957,0
 .00230650,-0.00041432,-0.00108703,-0.00059621,-0.00082664,0.00082663,0
 .00473755,-0.00317860,0.00513761,-0.00316268,0.00303376,0.04005701,-0.
 07641520,-0.00001061,0.00000272,-0.00000053,-0.00000188,0.00000251,-0.
 00000124,0.00000081,-0.00000024,-0.00000033,-0.00000239,-0.00000732,-0
 .00000432,0.00000435,-0.00000070,0.00000013,-0.00001518,0.00001683,-0.
 00000080,-0.00004440,0.00003194,-0.00002327,0.00001412,0.00007240,-0.0
 0001782,-0.00056067,-0.00103773,-0.00397493,-0.00001419,-0.00023263,-0
 .00056731,0.00009620,0.00004050,0.00080904,0.00153036,0.00012351,-0.00
 322194,0.00137697,-0.03440137,0.48547547,0.00000289,0.00000545,0.00000
 043,0.00000599,-0.00001448,0.00000197,-0.00003916,0.00003767,0.0000119
 4,0.00020582,0.00004785,-0.00005627,-0.00044678,0.00046670,0.00008419,
 0.00004219,-0.00024896,-0.00001952,0.00079037,0.00015441,-0.00005834,0
 .00082974,-0.00027854,0.00018734,-0.00445227,-0.00370874,0.00073168,0.
 00004453,-0.00021107,0.00000233,-0.00104893,0.00038679,-0.00015530,0.0
 0360045,0.00157703,-0.00045419,-0.01225183,0.01042528,-0.00357058,0.00
 000207,-0.00000188,0.00000019,0.00000129,-0.00000024,0.00000139,0.0000
 0080,0.00000023,-0.00000075,-0.00000038,0.00000107,-0.00000038,-0.0000
 0160,-0.00000077,0.00000069,0.00000824,-0.00000436,-0.00000141,0.00001
 694,-0.00001284,0.00001181,-0.00000353,-0.00002206,0.00000065,0.002103
 87,-0.00289100,0.00085402,0.00016271,-0.00003259,0.00001204,0.00008562
 ,0.00036159,-0.00006702,-0.00008349,0.00036045,-0.00012191,-0.20096322
 ,0.09903736,-0.03155985,0.33595607,-0.00001156,-0.00002229,-0.00000385
 ,-0.00001599,0.00005468,-0.00000325,0.00013382,-0.00012947,-0.00005693
 ,-0.00077019,-0.00022156,0.00020051,0.00177198,-0.00109396,-0.00036898
 ,-0.00060189,0.00072636,0.00044399,-0.00256984,-0.00027333,0.00003316,
 0.00293749,0.00122774,-0.00008776,0.00071570,-0.00281519,0.00062256,-0
 .00033579,-0.00041163,0.00021626,0.00306617,-0.00130222,0.00040350,-0.
 00802222,-0.00641033,0.00205555,0.04229879,-0.02249303,0.00989171,-0.0
 0001166,0.00000430,-0.00000101,-0.00000165,0.00000135,-0.00000171,-0.0
 0000118,0.00000148,0.00000189,-0.00000033,-0.00000391,-0.00000121,0.00
 000133,-0.00000294,0.00000183,-0.00002588,0.00001764,0.00000203,-0.000
 05367,0.00003890,-0.00002940,0.00000442,0.00009685,-0.00002308,0.00000
 637,-0.00456134,0.00123227,-0.00001947,-0.00018862,0.00002819,-0.00014
 275,-0.00081088,0.00011665,0.00062224,0.00046560,-0.00004944,0.0845712
 9,-0.14331523,0.02430533,-0.12993058,0.15378378,0.00000325,0.00000636,
 0.00000125,0.00000459,-0.00001555,-0.00000024,-0.00003721,0.00003799,0
 .00001261,0.00021826,0.00005985,-0.00005736,-0.00051692,0.00030129,0.0
 0011544,0.00017261,-0.00022661,-0.00011868,0.00073341,0.00007370,0.000
 03208,-0.00081728,-0.00031165,0.00013590,-0.00033602,0.00083329,-0.000
 17801,0.00008036,0.00014861,-0.00001466,-0.00087231,0.00026480,-0.0005
 3564,0.00234093,0.00237993,0.00122197,-0.01292190,0.00920610,0.0050450
 1,0.00000333,-0.00000117,0.00000031,0.00000081,-0.00000074,0.00000054,
 0.00000010,-0.00000017,-0.00000015,0.00000026,0.00000188,0.00000086,-0
 .00000088,0.00000008,-0.00000014,0.00000702,-0.00000468,0.00000063,0.0
 0001605,-0.00001167,0.00000898,0.00000078,-0.00002563,0.00000470,0.000
 05559,0.00116090,-0.00044638,0.00001322,0.00004934,-0.00001881,0.00005
 411,0.00017692,-0.00027975,-0.00021578,-0.00005312,0.00024183,-0.02727
 685,0.02428743,-0.07476341,0.04425784,-0.02473406,0.08807755,-0.000005
 29,-0.00000962,-0.00000209,-0.00000560,0.00002228,-0.00000061,0.000049
 78,-0.00005072,-0.00002635,-0.00030582,-0.00009020,0.00006583,0.000626
 54,-0.00025422,-0.00017186,-0.00032167,0.00014917,0.00020936,-0.000739
 46,-0.00022070,0.00021870,0.00071292,-0.00004977,-0.00117773,0.0015487
 3,-0.00089889,0.00058188,0.00034068,-0.00035048,0.00025272,0.00008702,
 -0.00118540,-0.00045071,-0.00450925,-0.00091133,0.00060326,-0.00225091
 ,-0.00672515,0.01918700,-0.00000551,0.00000120,-0.00000047,-0.00000021
 ,0.00000070,0.00000011,0.00000008,0.00000077,0.00000023,-0.00000049,-0
 .00000218,-0.00000144,0.00000011,-0.00000202,0.00000131,-0.00000768,0.
 00000599,-0.00000079,-0.00001945,0.00001480,-0.00000743,0.00000064,0.0
 0003122,-0.00000537,0.00040178,0.00041750,0.00046825,0.00004257,-0.000
 04060,0.00012422,0.00003570,-0.00024178,-0.00000127,0.00020441,0.00294
 405,-0.00216504,-0.11875668,-0.02017940,0.08451429,-0.06465689,0.01702
 954,0.04496873,0.17145888,-0.00001019,-0.00001855,-0.00000284,-0.00001
 257,0.00004378,-0.00000246,0.00010098,-0.00010253,-0.00004783,-0.00060
 203,-0.00015062,0.00014357,0.00133572,-0.00076635,-0.00033976,-0.00048
 131,0.00050090,0.00034910,-0.00176449,-0.00051066,0.00021328,0.0008501
 8,-0.00064569,-0.00172810,0.00344264,-0.00248517,0.00216403,-0.0006639
 1,-0.00050654,0.00036436,-0.00017277,-0.00021059,-0.00063226,-0.002636
 64,0.00064800,-0.00035522,-0.02186044,-0.00336902,0.03171715,-0.000009
 65,0.00000305,-0.00000088,-0.00000109,0.00000112,-0.00000095,-0.000000
 54,0.00000142,0.00000139,-0.00000063,-0.00000332,-0.00000129,0.0000005
 0,-0.00000295,0.00000159,-0.00001827,0.00001358,0.00000152,-0.00003991
 ,0.00003005,-0.00002009,0.00000707,0.00006961,-0.00001022,-0.00005577,
 0.00042900,0.00069690,-0.00001668,-0.00008037,0.00008474,0.00009034,-0
 .00012936,-0.00000790,0.00189969,-0.00050564,0.00148115,-0.01735555,-0
 .08068709,0.03121568,0.02382919,0.00824456,-0.01837773,0.00736914,0.07
 293696,0.00001080,0.00001970,0.00000336,0.00001303,-0.00004680,0.00000
 168,-0.00010504,0.00010814,0.00004666,0.00064849,0.00016600,-0.0001365
 8,-0.00143194,0.00074453,0.00032190,0.00051002,-0.00048197,-0.00036842
 ,0.00181417,0.00067533,-0.00018468,-0.00041213,-0.00000714,0.00117705,
 -0.00304599,0.00387177,-0.00248330,0.00031550,0.00029665,-0.00028021,-
 0.00010556,0.00066902,0.00028600,0.00325110,-0.00083271,0.00108873,0.0
 2081488,0.00773705,-0.01938741,0.00001070,-0.00000304,0.00000083,0.000
 00113,-0.00000171,0.00000050,-0.00000012,-0.00000114,-0.00000036,0.000
 00118,0.00000505,0.00000274,-0.00000041,0.00000268,-0.00000175,0.00001
 746,-0.00001456,0.00000018,0.00004373,-0.00003248,0.00002011,-0.000006
 86,-0.00007370,0.00000808,-0.00035077,-0.00037585,-0.00037467,-0.00002
 183,0.00010785,-0.00007674,-0.00009368,0.00016797,-0.00004661,-0.00223
 050,0.00039322,-0.00049934,0.08174914,0.03783219,-0.19698767,0.0340255
 6,-0.01259114,-0.00130921,-0.14276196,-0.01514394,0.30075878,-0.000004
 46,-0.00000774,-0.00000172,-0.00000464,0.00001827,0.00000005,0.0000399
 8,-0.00004321,-0.00002122,-0.00024595,-0.00006244,0.00005582,0.0004984
 2,-0.00018524,-0.00014513,-0.00026297,0.00013851,0.00018502,-0.0005317
 7,-0.00017730,0.00002371,0.00055609,0.00032419,0.00099504,0.00166973,-
 0.00082340,-0.00008345,0.00028783,-0.00043672,0.00001225,0.00006881,-0
 .00063337,0.00101158,-0.00434041,-0.00136392,-0.00025232,-0.00094331,-
 0.01526041,-0.01264686,-0.00000461,0.00000103,-0.00000046,0.00000003,0
 .00000017,0.00000029,-0.00000005,0.00000102,0.00000059,-0.00000072,-0.
 00000117,-0.00000054,-0.00000053,-0.00000220,0.00000134,-0.00000748,0.
 00000647,0.00000097,-0.00001497,0.00001047,-0.00000599,0.00000456,0.00
 002959,-0.00000888,0.00039788,0.00010333,-0.00056222,0.00004710,-0.000
 08602,-0.00009155,0.00003263,-0.00020822,0.00010339,-0.00035271,0.0042
 0262,0.00027594,-0.11092225,-0.05774753,-0.05893231,-0.05991152,-0.010
 64451,-0.04993610,0.01607508,0.00677701,0.00733990,0.15787019,-0.00001
 337,-0.00002495,-0.00000487,-0.00001801,0.00005917,-0.00000253,0.00013
 691,-0.00014074,-0.00007097,-0.00083886,-0.00019711,0.00019201,0.00179
 090,-0.00106812,-0.00047390,-0.00063965,0.00070526,0.00052109,-0.00233
 697,-0.00056856,0.00021932,0.00073707,0.00039486,0.00213121,0.00507332
 ,-0.00517908,-0.00037372,-0.00078283,-0.00077778,-0.00001241,-0.000119
 97,0.00004660,0.00091167,-0.00390519,0.00121724,0.00021711,-0.02809304
 ,-0.02618034,-0.02983285,-0.00001336,0.00000425,-0.00000122,-0.0000010
 7,0.00000105,-0.00000094,-0.00000119,0.00000218,0.00000214,-0.00000040
 ,-0.00000353,-0.00000121,0.00000059,-0.00000458,0.00000278,-0.00002499
 ,0.00002064,0.00000337,-0.00005490,0.00004033,-0.00002712,0.00001343,0
 .00009318,-0.00002424,0.00013858,0.00004694,-0.00096950,-0.00000110,-0
 .00015992,-0.00004745,0.00012588,-0.00018447,0.00006042,0.00333397,-0.
 00171790,-0.00084195,-0.05446963,-0.14640727,-0.06836825,0.00066705,0.
 01939271,0.00477432,0.00322609,0.00725240,-0.02319098,0.07607072,0.153
 33755,-0.00000372,-0.00000676,-0.00000223,-0.00000462,0.00001632,-0.00
 000113,0.00003690,-0.00003567,-0.00002268,-0.00023359,-0.00005392,0.00
 005185,0.00052392,-0.00028996,-0.00014009,-0.00020041,0.00018428,0.000
 18073,-0.00064235,-0.00025623,0.00010346,-0.00006251,0.00037196,0.0000
 0546,0.00092635,-0.00223562,0.00012687,0.00009741,-0.00003153,-0.00002
 614,0.00020903,-0.00044871,0.00023650,-0.00171443,0.00053466,0.0003379
 6,-0.00627414,-0.00475903,0.00183833,-0.00000383,0.00000114,-0.0000003
 3,0.00000018,-0.00000028,0.00000025,-0.00000066,0.00000097,0.00000091,
 -0.00000023,-0.00000002,0.00000018,-0.00000020,-0.00000222,0.00000134,
 -0.00000776,0.00000558,0.00000141,-0.00001402,0.00000985,-0.00000552,0
 .00000390,0.00002568,-0.00000676,0.00034610,0.00010795,-0.00002595,0.0
 0003234,-0.00005704,-0.00000193,0.00003682,-0.00010079,-0.00000262,0.0
 0088139,0.00036797,0.00037639,-0.05807341,-0.07519068,-0.14042337,-0.0
 4411854,-0.00160361,-0.01717722,-0.00442277,-0.03176298,-0.08157966,0.
 11268285,0.11520867,0.23615401\\0.00000187,-0.00000784,-0.00000937,-0.
 00000379,0.00000746,-0.00000835,0.00000093,-0.00001390,-0.00000519,-0.
 00000701,0.00000357,-0.00000701,0.00001435,-0.00001955,-0.00001682,-0.
 00001558,0.00003487,0.00001817,-0.00001342,-0.00002979,-0.00000417,0.0
 0001128,0.00001315,0.00000578,0.00000671,0.00000495,0.00000311,0.00000
 888,0.00000286,-0.00000114,-0.00000243,-0.00000025,0.00000612,0.000004
 48,0.00000357,0.00000688,-0.00000206,-0.00000168,0.00000831,0.00000021
 ,-0.00000018,-0.00001124,0.00000019,-0.00000064,-0.00000545,-0.0000017
 5,-0.00000395,-0.00001028,0.00000356,-0.00000414,-0.00000490,0.0000025
 5,-0.00000653,-0.00001337,-0.00000343,-0.00000032,-0.00000817,0.,0.000
 00117,0.00000118,0.00000227,-0.00000237,-0.00000312,-0.00000354,0.0000
 0017,0.00000325,-0.00000238,-0.00000018,-0.00000023,0.00000140,0.00000
 242,0.00000473,-0.00000213,0.00000312,0.00001086,0.,-0.00001008,0.0000
 1309,-0.00001428,0.00000903,0.00000688,0.00000847,0.00000633,-0.000000
 82,0.00000465,0.00000873,0.00002128\\\@


 HO!  SUCH BUGS AND GOBLINS IN MY LIFE!

                            -- HAMLET, ACT 5, SCENE 2
 Job cpu time:       0 days  2 hours 49 minutes 40.1 seconds.
 File lengths (MBytes):  RWF=    539 Int=      0 D2E=      0 Chk=     24 Scr=      1
 Normal termination of Gaussian 09 at Wed Feb 27 12:50:07 2019.
WARNING: pbs_rusage is deprecated and values produced may not be accurate


=============================================================================
                                     Resource usage:
                                       CPU time:              11:48:36
   JobId:    6207839.r-man2            Elapsed time:          02:58:57
   Project:             q95            Requested time:        36:00:00
   Service Units:     11.93 
                                       Max physical memory:      712MB
                                       Max virtual memory:      1599MB
                                       Requested memory:           0MB

                                       Number of cpus:               4

                                       Max jobfs disk use:       0.5GB
                                       Requested jobfs:         16.0GB
=============================================================================

