 Entering Gaussian System, Link 0=/apps/gaussian/g09e01/g09/g09
 AtFile(1): /home/507/hio507/Basis/6-31pGd.gbs
 Initial command:
 /apps/gaussian/g09e01/g09/l1.exe "/jobfs/local/6001053.r-man2/Gau-45285.inp" -scrdir="/jobfs/local/6001053.r-man2/"
 Entering Link 1 = /apps/gaussian/g09e01/g09/l1.exe PID=     45286.
  
 Copyright (c) 1988,1990,1992,1993,1995,1998,2003,2009,2015,
            Gaussian, Inc.  All Rights Reserved.
  
 This is part of the Gaussian(R) 09 program.  It is based on
 the Gaussian(R) 03 system (copyright 2003, Gaussian, Inc.),
 the Gaussian(R) 98 system (copyright 1998, Gaussian, Inc.),
 the Gaussian(R) 94 system (copyright 1995, Gaussian, Inc.),
 the Gaussian 92(TM) system (copyright 1992, Gaussian, Inc.),
 the Gaussian 90(TM) system (copyright 1990, Gaussian, Inc.),
 the Gaussian 88(TM) system (copyright 1988, Gaussian, Inc.),
 the Gaussian 86(TM) system (copyright 1986, Carnegie Mellon
 University), and the Gaussian 82(TM) system (copyright 1983,
 Carnegie Mellon University). Gaussian is a federally registered
 trademark of Gaussian, Inc.
  
 This software contains proprietary and confidential information,
 including trade secrets, belonging to Gaussian, Inc.
  
 This software is provided under written license and may be
 used, copied, transmitted, or stored only in accord with that
 written license.
  
 The following legend is applicable only to US Government
 contracts under FAR:
  
                    RESTRICTED RIGHTS LEGEND
  
 Use, reproduction and disclosure by the US Government is
 subject to restrictions as set forth in subparagraphs (a)
 and (c) of the Commercial Computer Software - Restricted
 Rights clause in FAR 52.227-19.
  
 Gaussian, Inc.
 340 Quinnipiac St., Bldg. 40, Wallingford CT 06492
  
  
 ---------------------------------------------------------------
 Warning -- This program may not be used in any manner that
 competes with the business of Gaussian, Inc. or will provide
 assistance to any competitor of Gaussian, Inc.  The licensee
 of this program is prohibited from giving any competitor of
 Gaussian, Inc. access to this program.  By using this program,
 the user acknowledges that Gaussian, Inc. is engaged in the
 business of creating and licensing software in the field of
 computational chemistry and represents and warrants to the
 licensee that it is not a competitor of Gaussian, Inc. and that
 it will not use this program in any manner prohibited above.
 ---------------------------------------------------------------
  

 Cite this work as:
 Gaussian 09, Revision E.01,
 M. J. Frisch, G. W. Trucks, H. B. Schlegel, G. E. Scuseria, 
 M. A. Robb, J. R. Cheeseman, G. Scalmani, V. Barone, B. Mennucci, 
 G. A. Petersson, H. Nakatsuji, M. Caricato, X. Li, H. P. Hratchian, 
 A. F. Izmaylov, J. Bloino, G. Zheng, J. L. Sonnenberg, M. Hada, 
 M. Ehara, K. Toyota, R. Fukuda, J. Hasegawa, M. Ishida, T. Nakajima, 
 Y. Honda, O. Kitao, H. Nakai, T. Vreven, J. A. Montgomery, Jr., 
 J. E. Peralta, F. Ogliaro, M. Bearpark, J. J. Heyd, E. Brothers, 
 K. N. Kudin, V. N. Staroverov, T. Keith, R. Kobayashi, J. Normand, 
 K. Raghavachari, A. Rendell, J. C. Burant, S. S. Iyengar, J. Tomasi, 
 M. Cossi, N. Rega, J. M. Millam, M. Klene, J. E. Knox, J. B. Cross, 
 V. Bakken, C. Adamo, J. Jaramillo, R. Gomperts, R. E. Stratmann, 
 O. Yazyev, A. J. Austin, R. Cammi, C. Pomelli, J. W. Ochterski, 
 R. L. Martin, K. Morokuma, V. G. Zakrzewski, G. A. Voth, 
 P. Salvador, J. J. Dannenberg, S. Dapprich, A. D. Daniels, 
 O. Farkas, J. B. Foresman, J. V. Ortiz, J. Cioslowski, 
 and D. J. Fox, Gaussian, Inc., Wallingford CT, 2013.
 
 ******************************************
 Gaussian 09:  ES64L-G09RevE.01 30-Nov-2015
                22-Feb-2019 
 ******************************************
 %chk=34TFM.M062X_6-31pGd_opt_Pentadecane.chk
 %mem=196608000
 %nproc=8
 Will use up to    8 processors via shared memory.
 ----------------------------------------------------------------------
 # M062X/Gen 6D SCF=Tight INT(grid=ultrafine) OPT IOP(2/17=4) SCRF=(SMD
 ,Solvent=n-Pentadecane) maxdisk=2684354560
 ----------------------------------------------------------------------
 1/14=-1,18=20,19=15,26=4,38=1/1,3;
 2/9=110,12=2,17=4,18=5,40=1/2;
 3/5=7,8=2,11=2,16=1,25=1,30=1,70=32201,71=1,72=151,74=-55,75=-5/1,2,3;
 4//1;
 5/5=2,32=2,38=5,53=151/2;
 6/7=2,8=2,9=2,10=2,28=1/1;
 7//1,2,3,16;
 1/14=-1,18=20,19=15,26=4/3(2);
 2/9=110,17=4/2;
 99//99;
 2/9=110,17=4/2;
 3/5=7,6=1,8=2,11=2,16=1,25=1,30=1,70=32205,71=1,72=151,74=-55,75=-5,82=7/1,2,3;
 4/5=5,16=3,69=1/1;
 5/5=2,32=2,38=5,53=151/2;
 7//1,2,3,16;
 1/14=-1,18=20,19=15,26=4/3(-5);
 2/9=110,17=4/2;
 6/7=2,8=2,9=2,10=2,19=2,28=1/1;
 99/9=1/99;
 -----------------------------------
 34TFM.M062X_6-31pGd_opt_Pentadecane
 -----------------------------------
 Symbolic Z-matrix:
 Charge =  0 Multiplicity = 1
 C                    -2.1131    2.45806  -0.31643 
 C                    -0.79881   1.69739  -0.16728 
 C                     0.40247   2.64631  -0.23662 
 N                     1.65407   1.92028  -0.09404 
 C                     2.85831   2.56218  -0.12577 
 O                     2.87725   3.77246  -0.2791 
 N                     4.01913   1.84176   0.01098 
 C                     5.37672   2.33872   0.00325 
 C                     5.73463   3.70208  -0.12192 
 C                     6.41575   1.40691   0.13015 
 C                     7.74822   1.80136   0.13231 
 C                     8.11651   3.14931   0.00856 
 C                     7.08531   4.12921  -0.12198 
 H                    -2.96337   1.74597  -0.26253 
 H                    -2.14807   2.9803   -1.29629 
 H                    -2.22197   3.20437   0.49921 
 H                    -0.72432   0.94463  -0.98212 
 H                    -0.79839   1.16898   0.81092 
 H                     0.32078   3.39805   0.57935 
 H                     0.39462   3.17288  -1.21654 
 H                     1.62056   0.78876   0.04699 
 H                     3.89524   0.70983   0.14535 
 H                     4.9854    4.45835  -0.21893 
 H                     6.20591   0.35149   0.22886 
 H                     8.50855   1.03523   0.23304 
 C                     7.37749   5.61677  -0.26087 
 C                     9.61598   3.4182    0.02894 
 F                     9.96856   4.74432  -0.09271 
 F                     10.21116   2.72939  -1.0131 
 F                     10.14066   2.95318   1.22185 
 F                     6.22448   6.37559  -0.37287 
 F                     8.12984   5.84274  -1.39953 
 F                     8.05858   6.06722   0.85576 
 

 GradGradGradGradGradGradGradGradGradGradGradGradGradGradGradGradGradGrad
 Berny optimization.
 Initialization pass.
                           ----------------------------
                           !    Initial Parameters    !
                           ! (Angstroms and Degrees)  !
 --------------------------                            --------------------------
 ! Name  Definition              Value          Derivative Info.                !
 --------------------------------------------------------------------------------
 ! R1    R(1,2)                  1.5259         estimate D2E/DX2                !
 ! R2    R(1,14)                 1.1104         estimate D2E/DX2                !
 ! R3    R(1,15)                 1.1109         estimate D2E/DX2                !
 ! R4    R(1,16)                 1.1109         estimate D2E/DX2                !
 ! R5    R(2,3)                  1.5324         estimate D2E/DX2                !
 ! R6    R(2,17)                 1.1118         estimate D2E/DX2                !
 ! R7    R(2,18)                 1.1118         estimate D2E/DX2                !
 ! R8    R(3,4)                  1.4539         estimate D2E/DX2                !
 ! R9    R(3,19)                 1.1125         estimate D2E/DX2                !
 ! R10   R(3,20)                 1.1125         estimate D2E/DX2                !
 ! R11   R(4,5)                  1.365          estimate D2E/DX2                !
 ! R12   R(4,21)                 1.1408         estimate D2E/DX2                !
 ! R13   R(5,6)                  1.2201         estimate D2E/DX2                !
 ! R14   R(5,7)                  1.373          estimate D2E/DX2                !
 ! R15   R(7,8)                  1.4457         estimate D2E/DX2                !
 ! R16   R(7,22)                 1.1466         estimate D2E/DX2                !
 ! R17   R(8,9)                  1.4151         estimate D2E/DX2                !
 ! R18   R(8,10)                 1.4014         estimate D2E/DX2                !
 ! R19   R(9,13)                 1.4166         estimate D2E/DX2                !
 ! R20   R(9,23)                 1.069          estimate D2E/DX2                !
 ! R21   R(10,11)                1.3896         estimate D2E/DX2                !
 ! R22   R(10,24)                1.0806         estimate D2E/DX2                !
 ! R23   R(11,12)                1.4028         estimate D2E/DX2                !
 ! R24   R(11,25)                1.0841         estimate D2E/DX2                !
 ! R25   R(12,13)                1.4285         estimate D2E/DX2                !
 ! R26   R(12,27)                1.5235         estimate D2E/DX2                !
 ! R27   R(13,26)                1.5223         estimate D2E/DX2                !
 ! R28   R(26,31)                1.3848         estimate D2E/DX2                !
 ! R29   R(26,32)                1.3833         estimate D2E/DX2                !
 ! R30   R(26,33)                1.3833         estimate D2E/DX2                !
 ! R31   R(27,28)                1.3776         estimate D2E/DX2                !
 ! R32   R(27,29)                1.3837         estimate D2E/DX2                !
 ! R33   R(27,30)                1.3837         estimate D2E/DX2                !
 ! A1    A(2,1,14)             109.5803         estimate D2E/DX2                !
 ! A2    A(2,1,15)             110.3463         estimate D2E/DX2                !
 ! A3    A(2,1,16)             110.3378         estimate D2E/DX2                !
 ! A4    A(14,1,15)            108.6747         estimate D2E/DX2                !
 ! A5    A(14,1,16)            108.6719         estimate D2E/DX2                !
 ! A6    A(15,1,16)            109.1902         estimate D2E/DX2                !
 ! A7    A(1,2,3)              111.229          estimate D2E/DX2                !
 ! A8    A(1,2,17)             108.8803         estimate D2E/DX2                !
 ! A9    A(1,2,18)             108.8604         estimate D2E/DX2                !
 ! A10   A(3,2,17)             109.4853         estimate D2E/DX2                !
 ! A11   A(3,2,18)             109.5007         estimate D2E/DX2                !
 ! A12   A(17,2,18)            108.845          estimate D2E/DX2                !
 ! A13   A(2,3,4)              111.1716         estimate D2E/DX2                !
 ! A14   A(2,3,19)             109.1283         estimate D2E/DX2                !
 ! A15   A(2,3,20)             109.1127         estimate D2E/DX2                !
 ! A16   A(4,3,19)             109.1908         estimate D2E/DX2                !
 ! A17   A(4,3,20)             109.1969         estimate D2E/DX2                !
 ! A18   A(19,3,20)            109.0089         estimate D2E/DX2                !
 ! A19   A(3,4,5)              121.4896         estimate D2E/DX2                !
 ! A20   A(3,4,21)             118.8253         estimate D2E/DX2                !
 ! A21   A(5,4,21)             119.6851         estimate D2E/DX2                !
 ! A22   A(4,5,6)              118.8871         estimate D2E/DX2                !
 ! A23   A(4,5,7)              119.7896         estimate D2E/DX2                !
 ! A24   A(6,5,7)              121.323          estimate D2E/DX2                !
 ! A25   A(5,7,8)              127.808          estimate D2E/DX2                !
 ! A26   A(5,7,22)             115.9959         estimate D2E/DX2                !
 ! A27   A(8,7,22)             116.1961         estimate D2E/DX2                !
 ! A28   A(7,8,9)              124.6914         estimate D2E/DX2                !
 ! A29   A(7,8,10)             117.8514         estimate D2E/DX2                !
 ! A30   A(9,8,10)             117.4571         estimate D2E/DX2                !
 ! A31   A(8,9,13)             122.1167         estimate D2E/DX2                !
 ! A32   A(8,9,23)             120.8213         estimate D2E/DX2                !
 ! A33   A(13,9,23)            117.0618         estimate D2E/DX2                !
 ! A34   A(8,10,11)            121.4883         estimate D2E/DX2                !
 ! A35   A(8,10,24)            120.9115         estimate D2E/DX2                !
 ! A36   A(11,10,24)           117.6002         estimate D2E/DX2                !
 ! A37   A(10,11,12)           121.6243         estimate D2E/DX2                !
 ! A38   A(10,11,25)           118.168          estimate D2E/DX2                !
 ! A39   A(12,11,25)           120.2077         estimate D2E/DX2                !
 ! A40   A(11,12,13)           118.5336         estimate D2E/DX2                !
 ! A41   A(11,12,27)           115.2645         estimate D2E/DX2                !
 ! A42   A(13,12,27)           126.2019         estimate D2E/DX2                !
 ! A43   A(9,13,12)            118.7799         estimate D2E/DX2                !
 ! A44   A(9,13,26)            118.5307         estimate D2E/DX2                !
 ! A45   A(12,13,26)           122.6893         estimate D2E/DX2                !
 ! A46   A(13,26,31)           112.5203         estimate D2E/DX2                !
 ! A47   A(13,26,32)           109.8221         estimate D2E/DX2                !
 ! A48   A(13,26,33)           109.8182         estimate D2E/DX2                !
 ! A49   A(31,26,32)           107.2619         estimate D2E/DX2                !
 ! A50   A(31,26,33)           107.2646         estimate D2E/DX2                !
 ! A51   A(32,26,33)           110.0877         estimate D2E/DX2                !
 ! A52   A(12,27,28)           114.8738         estimate D2E/DX2                !
 ! A53   A(12,27,29)           108.991          estimate D2E/DX2                !
 ! A54   A(12,27,30)           108.9912         estimate D2E/DX2                !
 ! A55   A(28,27,29)           107.6152         estimate D2E/DX2                !
 ! A56   A(28,27,30)           107.6141         estimate D2E/DX2                !
 ! A57   A(29,27,30)           108.5938         estimate D2E/DX2                !
 ! D1    D(14,1,2,3)           179.9871         estimate D2E/DX2                !
 ! D2    D(14,1,2,17)           59.2536         estimate D2E/DX2                !
 ! D3    D(14,1,2,18)          -59.2733         estimate D2E/DX2                !
 ! D4    D(15,1,2,3)            60.3593         estimate D2E/DX2                !
 ! D5    D(15,1,2,17)          -60.3742         estimate D2E/DX2                !
 ! D6    D(15,1,2,18)         -178.9011         estimate D2E/DX2                !
 ! D7    D(16,1,2,3)           -60.3938         estimate D2E/DX2                !
 ! D8    D(16,1,2,17)          178.8727         estimate D2E/DX2                !
 ! D9    D(16,1,2,18)           60.3459         estimate D2E/DX2                !
 ! D10   D(1,2,3,4)            179.9858         estimate D2E/DX2                !
 ! D11   D(1,2,3,19)            59.4924         estimate D2E/DX2                !
 ! D12   D(1,2,3,20)           -59.5233         estimate D2E/DX2                !
 ! D13   D(17,2,3,4)           -59.6372         estimate D2E/DX2                !
 ! D14   D(17,2,3,19)          179.8694         estimate D2E/DX2                !
 ! D15   D(17,2,3,20)           60.8536         estimate D2E/DX2                !
 ! D16   D(18,2,3,4)            59.6235         estimate D2E/DX2                !
 ! D17   D(18,2,3,19)          -60.8699         estimate D2E/DX2                !
 ! D18   D(18,2,3,20)         -179.8856         estimate D2E/DX2                !
 ! D19   D(2,3,4,5)            179.9523         estimate D2E/DX2                !
 ! D20   D(2,3,4,21)            -0.037          estimate D2E/DX2                !
 ! D21   D(19,3,4,5)           -59.5912         estimate D2E/DX2                !
 ! D22   D(19,3,4,21)          120.4195         estimate D2E/DX2                !
 ! D23   D(20,3,4,5)            59.5112         estimate D2E/DX2                !
 ! D24   D(20,3,4,21)         -120.4781         estimate D2E/DX2                !
 ! D25   D(3,4,5,6)             -0.0847         estimate D2E/DX2                !
 ! D26   D(3,4,5,7)           -179.9324         estimate D2E/DX2                !
 ! D27   D(21,4,5,6)           179.9046         estimate D2E/DX2                !
 ! D28   D(21,4,5,7)             0.0568         estimate D2E/DX2                !
 ! D29   D(4,5,7,8)            179.9859         estimate D2E/DX2                !
 ! D30   D(4,5,7,22)             0.1148         estimate D2E/DX2                !
 ! D31   D(6,5,7,8)              0.1419         estimate D2E/DX2                !
 ! D32   D(6,5,7,22)          -179.7292         estimate D2E/DX2                !
 ! D33   D(5,7,8,9)              1.5194         estimate D2E/DX2                !
 ! D34   D(5,7,8,10)          -178.5593         estimate D2E/DX2                !
 ! D35   D(22,7,8,9)          -178.6098         estimate D2E/DX2                !
 ! D36   D(22,7,8,10)            1.3116         estimate D2E/DX2                !
 ! D37   D(7,8,9,13)           179.957          estimate D2E/DX2                !
 ! D38   D(7,8,9,23)             0.105          estimate D2E/DX2                !
 ! D39   D(10,8,9,13)            0.0353         estimate D2E/DX2                !
 ! D40   D(10,8,9,23)         -179.8167         estimate D2E/DX2                !
 ! D41   D(7,8,10,11)         -179.9855         estimate D2E/DX2                !
 ! D42   D(7,8,10,24)            0.0946         estimate D2E/DX2                !
 ! D43   D(9,8,10,11)           -0.0583         estimate D2E/DX2                !
 ! D44   D(9,8,10,24)         -179.9783         estimate D2E/DX2                !
 ! D45   D(8,9,13,12)            0.0071         estimate D2E/DX2                !
 ! D46   D(8,9,13,26)         -179.9663         estimate D2E/DX2                !
 ! D47   D(23,9,13,12)         179.8644         estimate D2E/DX2                !
 ! D48   D(23,9,13,26)          -0.1091         estimate D2E/DX2                !
 ! D49   D(8,10,11,12)           0.0392         estimate D2E/DX2                !
 ! D50   D(8,10,11,25)        -179.9616         estimate D2E/DX2                !
 ! D51   D(24,10,11,12)        179.9617         estimate D2E/DX2                !
 ! D52   D(24,10,11,25)         -0.0391         estimate D2E/DX2                !
 ! D53   D(10,11,12,13)          0.0054         estimate D2E/DX2                !
 ! D54   D(10,11,12,27)        179.9841         estimate D2E/DX2                !
 ! D55   D(25,11,12,13)       -179.9938         estimate D2E/DX2                !
 ! D56   D(25,11,12,27)         -0.0152         estimate D2E/DX2                !
 ! D57   D(11,12,13,9)          -0.0277         estimate D2E/DX2                !
 ! D58   D(11,12,13,26)        179.9446         estimate D2E/DX2                !
 ! D59   D(27,12,13,9)         179.9963         estimate D2E/DX2                !
 ! D60   D(27,12,13,26)         -0.0315         estimate D2E/DX2                !
 ! D61   D(11,12,27,28)       -179.9816         estimate D2E/DX2                !
 ! D62   D(11,12,27,29)         59.1995         estimate D2E/DX2                !
 ! D63   D(11,12,27,30)        -59.1641         estimate D2E/DX2                !
 ! D64   D(13,12,27,28)         -0.0049         estimate D2E/DX2                !
 ! D65   D(13,12,27,29)       -120.8237         estimate D2E/DX2                !
 ! D66   D(13,12,27,30)        120.8127         estimate D2E/DX2                !
 ! D67   D(9,13,26,31)          -0.0099         estimate D2E/DX2                !
 ! D68   D(9,13,26,32)        -119.4112         estimate D2E/DX2                !
 ! D69   D(9,13,26,33)         119.3923         estimate D2E/DX2                !
 ! D70   D(12,13,26,31)       -179.9822         estimate D2E/DX2                !
 ! D71   D(12,13,26,32)         60.6165         estimate D2E/DX2                !
 ! D72   D(12,13,26,33)        -60.58           estimate D2E/DX2                !
 --------------------------------------------------------------------------------
 Trust Radius=3.00D-01 FncErr=1.00D-07 GrdErr=1.00D-06
 Number of steps in this run=    172 maximum allowed number of steps=    198.
 GradGradGradGradGradGradGradGradGradGradGradGradGradGradGradGradGradGrad

                          Input orientation:                          
 ---------------------------------------------------------------------
 Center     Atomic      Atomic             Coordinates (Angstroms)
 Number     Number       Type             X           Y           Z
 ---------------------------------------------------------------------
      1          6           0       -2.113100    2.458060   -0.316430
      2          6           0       -0.798810    1.697390   -0.167280
      3          6           0        0.402470    2.646310   -0.236620
      4          7           0        1.654070    1.920280   -0.094040
      5          6           0        2.858310    2.562180   -0.125770
      6          8           0        2.877250    3.772460   -0.279100
      7          7           0        4.019130    1.841760    0.010980
      8          6           0        5.376720    2.338720    0.003250
      9          6           0        5.734630    3.702080   -0.121920
     10          6           0        6.415750    1.406910    0.130150
     11          6           0        7.748220    1.801360    0.132310
     12          6           0        8.116510    3.149310    0.008560
     13          6           0        7.085310    4.129210   -0.121980
     14          1           0       -2.963370    1.745970   -0.262530
     15          1           0       -2.148070    2.980300   -1.296290
     16          1           0       -2.221970    3.204370    0.499210
     17          1           0       -0.724320    0.944630   -0.982120
     18          1           0       -0.798390    1.168980    0.810920
     19          1           0        0.320780    3.398050    0.579350
     20          1           0        0.394620    3.172880   -1.216540
     21          1           0        1.620560    0.788760    0.046990
     22          1           0        3.895240    0.709830    0.145350
     23          1           0        4.985400    4.458350   -0.218930
     24          1           0        6.205910    0.351490    0.228860
     25          1           0        8.508550    1.035230    0.233040
     26          6           0        7.377490    5.616770   -0.260870
     27          6           0        9.615980    3.418200    0.028940
     28          9           0        9.968560    4.744320   -0.092710
     29          9           0       10.211160    2.729390   -1.013100
     30          9           0       10.140660    2.953180    1.221850
     31          9           0        6.224480    6.375590   -0.372870
     32          9           0        8.129840    5.842740   -1.399530
     33          9           0        8.058580    6.067220    0.855760
 ---------------------------------------------------------------------
                    Distance matrix (angstroms):
                    1          2          3          4          5
     1  C    0.000000
     2  C    1.525851   0.000000
     3  C    2.523866   1.532426   0.000000
     4  N    3.811854   2.464075   1.453943   0.000000
     5  C    4.976154   3.758206   2.459780   1.365004   0.000000
     6  O    5.160682   4.222776   2.719293   2.227327   1.220101
     7  N    6.171812   4.823398   3.713332   2.368692   1.373029
     8  C    7.497589   6.211083   4.989520   3.747356   2.531594
     9  C    7.948100   6.834228   5.436887   4.452702   3.093962
    10  C    8.604977   7.226529   6.150623   4.794518   3.749070
    11  C    9.893344   8.552911   7.403384   6.099511   4.955469
    12  C   10.258088   9.034485   7.734309   6.579071   5.292583
    13  C    9.351005   8.250767   6.846348   5.863320   4.508118
    14  H    1.110377   2.167199   3.484274   4.623800   5.880209
    15  H    1.110893   2.177389   2.782032   4.126175   5.158370
    16  H    1.110900   2.177288   2.782187   4.126078   5.158707
    17  H    2.159241   1.111828   2.172819   2.719801   4.023064
    18  H    2.158960   1.111797   2.172995   2.719920   4.023661
    19  H    2.758582   2.168682   1.112472   2.101171   2.763138
    20  H    2.758591   2.168477   1.112466   2.101244   2.762698
    21  H    4.105953   2.593236   2.239346   1.140767   2.169537
    22  H    6.274528   4.806986   4.011895   2.558386   2.140077
    23  H    7.375593   6.409575   4.928189   4.189887   2.851079
    24  H    8.598890   7.143842   6.258018   4.825413   4.027324
    25  H   10.730602   9.339468   8.277964   6.919118   5.863918
    26  C   10.002591   9.067645   7.581235   6.815380   5.456350
    27  C   11.773380  10.557819   9.249600   8.102524   6.813429
    28  F   12.298111  11.190424   9.794510   8.780999   7.437640
    29  F   12.346917  11.090531   9.839727   8.644254   7.408085
    30  F   12.359858  11.098590   9.851581   8.649894   7.416305
    31  F    9.212245   8.441234   6.915338   6.388754   5.092569
    32  F   10.841909   9.920845   8.442853   7.682812   6.338262
    33  F   10.856479   9.929521   8.456473   7.688757   6.347560
                    6          7          8          9         10
     6  O    0.000000
     7  N    2.261778   0.000000
     8  C    2.895286   1.445711   0.000000
     9  C    2.862565   2.534047   1.415103   0.000000
    10  C    4.276014   2.438664   1.401412   2.407337   0.000000
    11  C    5.270753   3.731282   2.435041   2.780632   1.389630
    12  C    5.284024   4.300955   2.857190   2.448659   2.437894
    13  C    4.226077   3.827736   2.478067   1.416607   2.814746
    14  H    6.182215   6.988511   8.365351   8.916352   9.393458
    15  H    5.188067   6.406214   7.663086   8.002317   8.823225
    16  H    5.189464   6.406747   7.663903   7.996312   8.830474
    17  H    4.632728   4.928631   6.335387   7.075416   7.240956
    18  H    4.634283   4.929608   6.336608   7.068744   7.250095
    19  H    2.722620   4.052515   5.197750   5.467539   6.427681
    20  H    2.720614   4.051637   5.196637   5.476673   6.417650
    21  H    3.253931   2.619779   4.063622   5.043960   4.835584
    22  H    3.255175   1.146590   2.206413   3.522549   2.615172
    23  H    2.217738   2.798764   2.166870   1.068972   3.388074
    24  H    4.800108   2.655256   2.165073   3.401706   1.080596
    25  H    6.282217   4.566694   3.400037   3.864287   2.128038
    26  C    4.863535   5.059959   3.849474   2.526724   4.335985
    27  C    6.755063   5.814655   4.374616   3.894640   3.781138
    28  F    7.160023   6.620523   5.184700   4.360422   4.879593
    29  F    7.443990   6.338601   4.955542   4.666867   4.178649
    30  F    7.461983   6.338343   4.955570   4.666869   4.178243
    31  F    4.241347   5.056335   4.142038   2.729576   4.997739
    32  F    5.755964   5.907226   4.671790   3.457129   4.995459
    33  F    5.779274   5.906380   4.671280   3.456948   4.994386
                   11         12         13         14         15
    11  C    0.000000
    12  C    1.402826   0.000000
    13  C    2.433721   1.428502   0.000000
    14  H   10.719008  11.171687  10.328386   0.000000
    15  H   10.068136  10.348565   9.378396   1.804701   0.000000
    16  H   10.075105  10.350263   9.373722   1.804675   1.810936
    17  H    8.588357   9.165279   8.477719   2.484613   2.503941
    18  H    8.596799   9.167384   8.472661   2.484422   3.089150
    19  H    7.610265   7.820555   6.839980   3.771442   3.128540
    20  H    7.601046   7.818504   6.846748   3.771247   2.551219
    21  H    6.211349   6.911660   6.407078   4.693023   4.561778
    22  H    4.004630   4.877386   4.684034   6.948416   6.614753
    23  H    3.849174   3.401351   2.127758   8.398920   7.364220
    24  H    2.119001   3.395103   3.894560   9.287720   8.889640
    25  H    1.084068   2.161810   3.424086  11.504594  10.940096
    26  C    3.853490   2.589807   1.522332  11.041580   9.937774
    27  C    2.472526   1.523525   2.632984  12.693359  11.846555
    28  F    3.693448   2.446304   2.948279  13.276059  12.303377
    29  F    2.870414   2.368054   3.539001  13.232487  12.365020
    30  F    2.870114   2.368063   3.538939  13.242973  12.544108
    31  F    4.847739   3.759541   2.418718  10.288933   9.081866
    32  F    4.338769   3.039319   2.378941  11.880051  10.669567
    33  F    4.337887   3.038964   2.378889  11.891474  10.878240
                   16         17         18         19         20
    16  H    0.000000
    17  H    3.089291   0.000000
    18  H    2.503309   1.808539   0.000000
    19  H    2.551375   3.090258   2.504979   0.000000
    20  H    3.129111   2.504412   3.090224   1.811457   0.000000
    21  H    4.561218   2.565507   2.565049   2.963314   2.963691
    22  H    6.615754   4.760951   4.762769   4.493512   4.491737
    23  H    7.350808   6.747562   6.732962   4.849759   4.870618
    24  H    8.901751   7.060197   7.075825   6.636198   6.619707
    25  H   10.950802   9.312932   9.325823   8.528917   8.515086
    26  C    9.927086   9.380214   9.368916   7.444854   7.459650
    27  C   11.849217  10.680009  10.683145   9.311504   9.308323
    28  F   12.301660  11.382723  11.380985   9.764413   9.766921
    29  F   12.533771  11.080210  11.268191  10.040051   9.828659
    30  F   12.386280  11.266745  11.091215   9.850927  10.048846
    31  F    9.064198   8.840381   8.822179   6.680280   6.704953
    32  F   10.850170  10.127283  10.317142   8.418663   8.185064
    33  F   10.677675  10.332379  10.121298   8.189897   8.450320
                   21         22         23         24         25
    21  H    0.000000
    22  H    2.278173   0.000000
    23  H    4.985855   3.920784   0.000000
    24  H    4.609741   2.339781   4.307721   0.000000
    25  H    6.894909   4.625603   4.933013   2.402013   0.000000
    26  C    7.519754   6.030683   2.658155   5.416236   4.744866
    27  C    8.416711   6.330536   4.752433   4.590562   2.635641
    28  F    9.238781   7.295135   4.992954   5.792918   3.999386
    29  F    8.870639   6.731380   5.561347   4.820674   2.705905
    30  F    8.868885   6.722852   5.560404   4.820485   2.705561
    31  F    7.251554   6.147743   2.287974   6.054106   5.839824
    32  F    8.366950   6.831197   3.632885   6.042101   5.091253
    33  F    8.364470   6.822002   3.631509   6.041106   5.090302
                   26         27         28         29         30
    26  C    0.000000
    27  C    3.150958   0.000000
    28  F    2.739177   1.377572   0.000000
    29  F    4.114912   1.383671   2.228433   0.000000
    30  F    4.114399   1.383679   2.228423   2.247232   0.000000
    31  F    1.384841   4.517729   4.093613   5.440431   5.439898
    32  F    1.383344   3.182378   2.509023   3.764860   4.389144
    33  F    1.383348   3.182206   2.509519   4.389459   3.763818
                   31         32         33
    31  F    0.000000
    32  F    2.228981   0.000000
    33  F    2.229024   2.267554   0.000000
 Stoichiometry    C12H12F6N2O
 Framework group  C1[X(C12H12F6N2O)]
 Deg. of freedom    93
 Full point group                 C1      NOp   1
 Largest Abelian subgroup         C1      NOp   1
 Largest concise Abelian subgroup C1      NOp   1
                         Standard orientation:                         
 ---------------------------------------------------------------------
 Center     Atomic      Atomic             Coordinates (Angstroms)
 Number     Number       Type             X           Y           Z
 ---------------------------------------------------------------------
      1          6           0        7.785599    0.610664    0.015468
      2          6           0        6.648575   -0.406627   -0.007267
      3          6           0        5.282507    0.287551    0.010266
      4          7           0        4.200038   -0.682876   -0.011760
      5          6           0        2.892110   -0.292450   -0.000482
      6          8           0        2.633024    0.899427    0.030352
      7          7           0        1.897528   -1.238816   -0.020640
      8          6           0        0.468107   -1.022537   -0.012896
      9          6           0       -0.154189    0.248394   -0.012975
     10          6           0       -0.364580   -2.149723   -0.006410
     11          6           0       -1.748972   -2.029409    0.000931
     12          6           0       -2.378364   -0.775700    0.001382
     13          6           0       -1.562944    0.397182   -0.006055
     14          1           0        8.760549    0.079403    0.002352
     15          1           0        7.730755    1.230743    0.935565
     16          1           0        7.729278    1.272629   -0.874886
     17          1           0        6.739854   -1.068155    0.881670
     18          1           0        6.738527   -1.025700   -0.926370
     19          1           0        5.198467    0.949390   -0.879958
     20          1           0        5.200230    0.906485    0.930989
     21          1           0        4.457780   -1.793814   -0.038863
     22          1           0        2.243986   -2.331551   -0.044429
     23          1           0        0.429402    1.143973   -0.020704
     24          1           0        0.051279   -3.147094   -0.005661
     25          1           0       -2.341516   -2.937190    0.006369
     26          6           0       -2.145573    1.803608   -0.007479
     27          6           0       -3.901417   -0.812737    0.009483
     28          9           0       -4.511072    0.422587    0.009470
     29          9           0       -4.329343   -1.490863    1.137122
     30          9           0       -4.341160   -1.496690   -1.110072
     31          9           0       -1.166749    2.783211   -0.015518
     32          9           0       -2.909563    1.996018    1.129595
     33          9           0       -2.921102    1.988849   -1.137918
 ---------------------------------------------------------------------
 Rotational constants (GHZ):      0.6764516      0.1152014      0.1025030
 General basis read from cards:  (6D, 7F)
 There are   423 symmetry adapted cartesian basis functions of A   symmetry.
 There are   423 symmetry adapted basis functions of A   symmetry.
   423 basis functions,   720 primitive gaussians,   423 cartesian basis functions
    80 alpha electrons       80 beta electrons
       nuclear repulsion energy      1751.1541312902 Hartrees.
 NAtoms=   33 NActive=   33 NUniq=   33 SFac= 1.00D+00 NAtFMM=   60 NAOKFM=F Big=F
 Integral buffers will be    131072 words long.
 Raffenetti 2 integral format.
 Two-electron integral symmetry is turned on.
 ------------------------------------------------------------------------------
 Polarizable Continuum Model (PCM)
 =================================
 Model                : PCM (using non-symmetric T matrix).
 Atomic radii         : SMD-Coulomb.
 Polarization charges : Total charges.
 Charge compensation  : None.
 Solution method      : On-the-fly selection.
 Cavity type          : VdW (van der Waals Surface) (Alpha=1.000).
 Cavity algorithm     : GePol (No added spheres)
                        Default sphere list used, NSphG=   33.
                        Lebedev-Laikov grids with approx.  5.0 points / Ang**2.
                        Smoothing algorithm: York/Karplus (Gamma=1.0000).
                        Polarization charges: spherical gaussians, with
                                              point-specific exponents (IZeta= 3).
                        Self-potential: point-specific (ISelfS= 7).
                        Self-field    : sphere-specific E.n sum rule (ISelfD= 2).
 1st derivatives      : Analytical E(r).r(x)/FMM algorithm (CHGder, D1EAlg=3).
                        Cavity 1st derivative terms included.
 Solvent              : n-Pentadecane, Eps=   2.033300 Eps(inf)=   2.049192
 ------------------------------------------------------------------------------
 ------------------------------------------------------------------------------
 Atomic radii for non-electrostatic terms: SMD-CDS.
 ------------------------------------------------------------------------------
 Nuclear repulsion after PCM non-electrostatic terms =     1751.1491688153 Hartrees.
 One-electron integrals computed using PRISM.
 NBasis=   423 RedAO= T EigKep=  1.01D-06  NBF=   423
 NBsUse=   422 1.00D-06 EigRej=  2.29D-07 NBFU=   422
 ExpMin= 4.38D-02 ExpMax= 7.00D+03 ExpMxC= 1.05D+03 IAcc=3 IRadAn=         5 AccDes= 0.00D+00
 Harris functional with IExCor= 1009 and IRadAn=       5 diagonalized for initial guess.
 HarFok:  IExCor= 1009 AccDes= 0.00D+00 IRadAn=         5 IDoV= 1 UseB2=F ITyADJ=14
 ICtDFT=  3500011 ScaDFX=  1.000000  1.000000  1.000000  1.000000
 FoFCou: FMM=F IPFlag=           0 FMFlag=      100000 FMFlg1=           0
         NFxFlg=           0 DoJE=T BraDBF=F KetDBF=T FulRan=T
         wScrn=  0.000000 ICntrl=     500 IOpCl=  0 I1Cent=   200000004 NGrid=           0
         NMat0=    1 NMatS0=      1 NMatT0=    0 NMatD0=    1 NMtDS0=    0 NMtDT0=    0
 Petite list used in FoFCou.
 Requested convergence on RMS density matrix=1.00D-08 within 128 cycles.
 Requested convergence on MAX density matrix=1.00D-06.
 Requested convergence on             energy=1.00D-06.
 No special actions if energy rises.
 Inv3:  Mode=1 IEnd=    19737675.
 Iteration    1 A*A^-1 deviation from unit magnitude is 6.00D-15 for   2546.
 Iteration    1 A*A^-1 deviation from orthogonality  is 2.40D-15 for   2521   2205.
 Iteration    1 A^-1*A deviation from unit magnitude is 6.22D-15 for   2546.
 Iteration    1 A^-1*A deviation from orthogonality  is 2.49D-15 for   1590   1562.
 Error on total polarization charges =  0.02138
 SCF Done:  E(RM062X) =  -1247.88836839     A.U. after   15 cycles
            NFock= 15  Conv=0.88D-08     -V/T= 2.0090
 SMD-CDS (non-electrostatic) energy       (kcal/mol) =      -3.11
 (included in total energy above)

 **********************************************************************

            Population analysis using the SCF density.

 **********************************************************************

 Orbital symmetries:
       Occupied  (A) (A) (A) (A) (A) (A) (A) (A) (A) (A) (A) (A)
                 (A) (A) (A) (A) (A) (A) (A) (A) (A) (A) (A) (A)
                 (A) (A) (A) (A) (A) (A) (A) (A) (A) (A) (A) (A)
                 (A) (A) (A) (A) (A) (A) (A) (A) (A) (A) (A) (A)
                 (A) (A) (A) (A) (A) (A) (A) (A) (A) (A) (A) (A)
                 (A) (A) (A) (A) (A) (A) (A) (A) (A) (A) (A) (A)
                 (A) (A) (A) (A) (A) (A) (A) (A)
       Virtual   (A) (A) (A) (A) (A) (A) (A) (A) (A) (A) (A) (A)
                 (A) (A) (A) (A) (A) (A) (A) (A) (A) (A) (A) (A)
                 (A) (A) (A) (A) (A) (A) (A) (A) (A) (A) (A) (A)
                 (A) (A) (A) (A) (A) (A) (A) (A) (A) (A) (A) (A)
                 (A) (A) (A) (A) (A) (A) (A) (A) (A) (A) (A) (A)
                 (A) (A) (A) (A) (A) (A) (A) (A) (A) (A) (A) (A)
                 (A) (A) (A) (A) (A) (A) (A) (A) (A) (A) (A) (A)
                 (A) (A) (A) (A) (A) (A) (A) (A) (A) (A) (A) (A)
                 (A) (A) (A) (A) (A) (A) (A) (A) (A) (A) (A) (A)
                 (A) (A) (A) (A) (A) (A) (A) (A) (A) (A) (A) (A)
                 (A) (A) (A) (A) (A) (A) (A) (A) (A) (A) (A) (A)
                 (A) (A) (A) (A) (A) (A) (A) (A) (A) (A) (A) (A)
                 (A) (A) (A) (A) (A) (A) (A) (A) (A) (A) (A) (A)
                 (A) (A) (A) (A) (A) (A) (A) (A) (A) (A) (A) (A)
                 (A) (A) (A) (A) (A) (A) (A) (A) (A) (A) (A) (A)
                 (A) (A) (A) (A) (A) (A) (A) (A) (A) (A) (A) (A)
                 (A) (A) (A) (A) (A) (A) (A) (A) (A) (A) (A) (A)
                 (A) (A) (A) (A) (A) (A) (A) (A) (A) (A) (A) (A)
                 (A) (A) (A) (A) (A) (A) (A) (A) (A) (A) (A) (A)
                 (A) (A) (A) (A) (A) (A) (A) (A) (A) (A) (A) (A)
                 (A) (A) (A) (A) (A) (A) (A) (A) (A) (A) (A) (A)
                 (A) (A) (A) (A) (A) (A) (A) (A) (A) (A) (A) (A)
                 (A) (A) (A) (A) (A) (A) (A) (A) (A) (A) (A) (A)
                 (A) (A) (A) (A) (A) (A) (A) (A) (A) (A) (A) (A)
                 (A) (A) (A) (A) (A) (A) (A) (A) (A) (A) (A) (A)
                 (A) (A) (A) (A) (A) (A) (A) (A) (A) (A) (A) (A)
                 (A) (A) (A) (A) (A) (A) (A) (A) (A) (A) (A) (A)
                 (A) (A) (A) (A) (A) (A) (A) (A) (A) (A) (A) (A)
                 (A) (A) (A) (A) (A) (A)
 The electronic state is 1-A.
 Alpha  occ. eigenvalues --  -25.30716 -25.30698 -25.30660 -25.30658 -25.30370
 Alpha  occ. eigenvalues --  -25.30365 -19.61229 -14.83080 -14.80365 -10.83037
 Alpha  occ. eigenvalues --  -10.83003 -10.69228 -10.64276 -10.61723 -10.60927
 Alpha  occ. eigenvalues --  -10.59152 -10.58976 -10.58622 -10.58456 -10.55950
 Alpha  occ. eigenvalues --  -10.54656  -1.45058  -1.44449  -1.37138  -1.36906
 Alpha  occ. eigenvalues --   -1.36722  -1.36423  -1.18650  -1.05382  -1.02658
 Alpha  occ. eigenvalues --   -0.99151  -0.90732  -0.89842  -0.88195  -0.82771
 Alpha  occ. eigenvalues --   -0.80818  -0.77958  -0.73966  -0.73363  -0.69325
 Alpha  occ. eigenvalues --   -0.68472  -0.68368  -0.68152  -0.67877  -0.67464
 Alpha  occ. eigenvalues --   -0.66409  -0.63881  -0.62612  -0.59301  -0.57462
 Alpha  occ. eigenvalues --   -0.57296  -0.56773  -0.56717  -0.56408  -0.55348
 Alpha  occ. eigenvalues --   -0.55143  -0.53810  -0.53800  -0.53166  -0.52830
 Alpha  occ. eigenvalues --   -0.52548  -0.52080  -0.51812  -0.50882  -0.50766
 Alpha  occ. eigenvalues --   -0.50058  -0.48831  -0.47983  -0.46745  -0.45674
 Alpha  occ. eigenvalues --   -0.45067  -0.44098  -0.42869  -0.40636  -0.40577
 Alpha  occ. eigenvalues --   -0.39024  -0.34853  -0.33986  -0.32476  -0.29568
 Alpha virt. eigenvalues --   -0.02547  -0.00889  -0.00743   0.02032   0.02836
 Alpha virt. eigenvalues --    0.03153   0.03628   0.03787   0.04644   0.04938
 Alpha virt. eigenvalues --    0.05314   0.05625   0.06233   0.06890   0.06994
 Alpha virt. eigenvalues --    0.07393   0.07492   0.08455   0.08666   0.08925
 Alpha virt. eigenvalues --    0.09297   0.09580   0.09991   0.11060   0.11390
 Alpha virt. eigenvalues --    0.11980   0.12221   0.12266   0.12805   0.13331
 Alpha virt. eigenvalues --    0.13522   0.13818   0.14312   0.14708   0.15391
 Alpha virt. eigenvalues --    0.15858   0.16006   0.17186   0.17243   0.18048
 Alpha virt. eigenvalues --    0.18814   0.19091   0.19313   0.20043   0.20207
 Alpha virt. eigenvalues --    0.20417   0.20812   0.21040   0.21371   0.21870
 Alpha virt. eigenvalues --    0.22142   0.22406   0.23414   0.23469   0.23749
 Alpha virt. eigenvalues --    0.23902   0.24428   0.24551   0.24974   0.25525
 Alpha virt. eigenvalues --    0.25556   0.26613   0.26801   0.27317   0.27591
 Alpha virt. eigenvalues --    0.28188   0.28777   0.29010   0.29467   0.30217
 Alpha virt. eigenvalues --    0.30255   0.30551   0.31277   0.31418   0.31543
 Alpha virt. eigenvalues --    0.32204   0.32236   0.32500   0.33507   0.34242
 Alpha virt. eigenvalues --    0.34577   0.34617   0.35519   0.36352   0.36894
 Alpha virt. eigenvalues --    0.37211   0.37948   0.38001   0.38678   0.39170
 Alpha virt. eigenvalues --    0.39622   0.39782   0.40424   0.40875   0.40905
 Alpha virt. eigenvalues --    0.41945   0.42576   0.42677   0.43061   0.44271
 Alpha virt. eigenvalues --    0.44340   0.45051   0.45415   0.46274   0.46762
 Alpha virt. eigenvalues --    0.47430   0.47601   0.48799   0.50286   0.50939
 Alpha virt. eigenvalues --    0.51916   0.52251   0.53002   0.54425   0.54559
 Alpha virt. eigenvalues --    0.58000   0.58841   0.60624   0.63381   0.66289
 Alpha virt. eigenvalues --    0.68486   0.68972   0.70177   0.72471   0.73117
 Alpha virt. eigenvalues --    0.74300   0.74699   0.75899   0.76304   0.76496
 Alpha virt. eigenvalues --    0.78471   0.79083   0.79582   0.80689   0.81321
 Alpha virt. eigenvalues --    0.82088   0.83082   0.84786   0.84863   0.86027
 Alpha virt. eigenvalues --    0.87556   0.87862   0.88242   0.88728   0.90569
 Alpha virt. eigenvalues --    0.91157   0.92097   0.93768   0.95399   0.97349
 Alpha virt. eigenvalues --    0.98291   0.99411   0.99725   1.01846   1.03379
 Alpha virt. eigenvalues --    1.03766   1.04661   1.04949   1.06558   1.07441
 Alpha virt. eigenvalues --    1.10353   1.10490   1.11688   1.13855   1.14072
 Alpha virt. eigenvalues --    1.16195   1.17413   1.17929   1.19554   1.20005
 Alpha virt. eigenvalues --    1.20558   1.21268   1.23919   1.24919   1.28149
 Alpha virt. eigenvalues --    1.28506   1.30209   1.30801   1.32615   1.34547
 Alpha virt. eigenvalues --    1.35463   1.38610   1.39201   1.40980   1.42176
 Alpha virt. eigenvalues --    1.43574   1.44858   1.46248   1.48188   1.48467
 Alpha virt. eigenvalues --    1.49214   1.51048   1.51951   1.53028   1.55307
 Alpha virt. eigenvalues --    1.56974   1.57968   1.60411   1.62837   1.64302
 Alpha virt. eigenvalues --    1.64557   1.65704   1.66358   1.67288   1.68127
 Alpha virt. eigenvalues --    1.68780   1.70578   1.72987   1.73148   1.73424
 Alpha virt. eigenvalues --    1.73970   1.75643   1.75820   1.76431   1.77020
 Alpha virt. eigenvalues --    1.77602   1.78935   1.80238   1.80670   1.81263
 Alpha virt. eigenvalues --    1.82381   1.82487   1.83652   1.85238   1.86268
 Alpha virt. eigenvalues --    1.86741   1.86936   1.87202   1.87685   1.87906
 Alpha virt. eigenvalues --    1.88421   1.89077   1.89348   1.89412   1.90986
 Alpha virt. eigenvalues --    1.91532   1.91985   1.92624   1.93675   1.95719
 Alpha virt. eigenvalues --    1.96579   1.96838   1.97253   1.97930   2.01074
 Alpha virt. eigenvalues --    2.01811   2.01840   2.02953   2.03913   2.04461
 Alpha virt. eigenvalues --    2.04625   2.05155   2.05553   2.06560   2.07419
 Alpha virt. eigenvalues --    2.07915   2.09219   2.09446   2.10109   2.12876
 Alpha virt. eigenvalues --    2.14201   2.14248   2.14978   2.16095   2.16621
 Alpha virt. eigenvalues --    2.19758   2.19797   2.22945   2.23834   2.24601
 Alpha virt. eigenvalues --    2.24823   2.28111   2.28733   2.29741   2.30489
 Alpha virt. eigenvalues --    2.30805   2.33982   2.36130   2.36659   2.36870
 Alpha virt. eigenvalues --    2.39404   2.39600   2.40804   2.43365   2.44717
 Alpha virt. eigenvalues --    2.48324   2.53333   2.55129   2.55551   2.55866
 Alpha virt. eigenvalues --    2.62420   2.62720   2.64173   2.65247   2.67368
 Alpha virt. eigenvalues --    2.70795   2.73084   2.74088   2.74895   2.76098
 Alpha virt. eigenvalues --    2.78730   2.79821   2.80023   2.83356   2.84588
 Alpha virt. eigenvalues --    2.87471   2.89659   2.92964   2.99692   3.02677
 Alpha virt. eigenvalues --    3.11131   3.13437   3.14449   3.17958   3.24938
 Alpha virt. eigenvalues --    3.27118   3.28592   3.29394   3.33878   3.39118
 Alpha virt. eigenvalues --    3.40834   4.12464   4.25060   4.26485   4.32118
 Alpha virt. eigenvalues --    4.35890   4.40480   4.41470   4.44092   4.47187
 Alpha virt. eigenvalues --    4.50267   4.57232   4.60921   4.63122   4.69052
 Alpha virt. eigenvalues --    4.80740   5.41653   5.87764   6.23145   6.41764
 Alpha virt. eigenvalues --    6.92741   7.11852
          Condensed to atoms (all electrons):
               1          2          3          4          5          6
     1  C    5.574471  -0.008798  -0.003254  -0.003959  -0.028788  -0.002052
     2  C   -0.008798   6.159707  -0.378080  -0.074001   0.094322   0.020334
     3  C   -0.003254  -0.378080   7.004766   0.377251  -0.664159  -0.098246
     4  N   -0.003959  -0.074001   0.377251   7.677024   0.396071  -0.195614
     5  C   -0.028788   0.094322  -0.664159   0.396071   6.757239   0.674164
     6  O   -0.002052   0.020334  -0.098246  -0.195614   0.674164   8.281607
     7  N   -0.002451   0.013083  -0.200075  -0.406758   0.132457  -0.065588
     8  C   -0.006894   0.018372  -0.481807  -0.282679  -1.290876  -0.503352
     9  C    0.000102  -0.002162   0.039298   0.106505   0.878566   0.525110
    10  C   -0.001425   0.004640  -0.108407  -0.141349  -1.497897  -0.130361
    11  C    0.000061  -0.000572   0.020054   0.021841   0.208785   0.006707
    12  C   -0.000333   0.001276  -0.061089  -0.029143  -0.635788  -0.004448
    13  C    0.000286  -0.000701   0.012775   0.032866   0.186354   0.080679
    14  H    0.410705  -0.085566   0.027959   0.000488  -0.002568   0.000009
    15  H    0.417199  -0.064560  -0.008530   0.000618  -0.000144  -0.000065
    16  H    0.417563  -0.064530  -0.008489   0.000584  -0.000559  -0.000063
    17  H   -0.029554   0.418425  -0.074883   0.007906  -0.007979  -0.000233
    18  H   -0.031453   0.420446  -0.079440   0.007918  -0.004016  -0.000231
    19  H    0.006024  -0.053210   0.424217  -0.056796  -0.010452   0.000824
    20  H    0.006275  -0.052818   0.426060  -0.056754  -0.012306   0.000997
    21  H   -0.000786   0.001612  -0.103886   0.210808   0.057911   0.005869
    22  H   -0.000044   0.000060   0.010993   0.040522  -0.007573   0.004542
    23  H   -0.000002   0.000008   0.000796   0.000045  -0.010417   0.001129
    24  H    0.000000   0.000005  -0.000227   0.001125  -0.006930   0.000010
    25  H    0.000000   0.000000   0.000032   0.000010   0.003889  -0.000000
    26  C    0.000131  -0.000235   0.020178   0.014375   0.211873   0.006012
    27  C   -0.000017   0.000098  -0.004522  -0.000493  -0.192025   0.000209
    28  F    0.000000   0.000000   0.000003   0.000001   0.000648   0.000003
    29  F   -0.000000  -0.000000  -0.000001   0.000000   0.000133  -0.000001
    30  F   -0.000000   0.000000  -0.000001   0.000000   0.000053  -0.000001
    31  F   -0.000000   0.000013   0.000027  -0.000011  -0.000307  -0.000732
    32  F    0.000000  -0.000001   0.000003   0.000003   0.000205   0.000013
    33  F    0.000000  -0.000001  -0.000000   0.000003  -0.000147   0.000008
               7          8          9         10         11         12
     1  C   -0.002451  -0.006894   0.000102  -0.001425   0.000061  -0.000333
     2  C    0.013083   0.018372  -0.002162   0.004640  -0.000572   0.001276
     3  C   -0.200075  -0.481807   0.039298  -0.108407   0.020054  -0.061089
     4  N   -0.406758  -0.282679   0.106505  -0.141349   0.021841  -0.029143
     5  C    0.132457  -1.290876   0.878566  -1.497897   0.208785  -0.635788
     6  O   -0.065588  -0.503352   0.525110  -0.130361   0.006707  -0.004448
     7  N    7.800274  -0.004360  -0.210099   0.211439   0.051272  -0.042496
     8  C   -0.004360  18.312764  -4.245180   1.255671   0.114514  -1.166302
     9  C   -0.210099  -4.245180  15.640050  -7.117631   0.614894  -2.859846
    10  C    0.211439   1.255671  -7.117631  17.824422  -2.147386  -1.293317
    11  C    0.051272   0.114514   0.614894  -2.147386  17.966539   1.728388
    12  C   -0.042496  -1.166302  -2.859846  -1.293317   1.728388  28.975250
    13  C    0.096077  -4.026677   1.273749  -0.129424 -11.016477 -11.580995
    14  H    0.000008  -0.000045   0.000001  -0.000001   0.000000  -0.000000
    15  H    0.000010  -0.000018  -0.000024  -0.000003   0.000000  -0.000000
    16  H    0.000008  -0.000023  -0.000034  -0.000002   0.000000  -0.000000
    17  H   -0.000055  -0.000809  -0.000172  -0.000000   0.000007  -0.000006
    18  H    0.000099  -0.000670  -0.000041   0.000011   0.000003  -0.000003
    19  H    0.000878  -0.005950   0.004706  -0.000983  -0.000032   0.000052
    20  H    0.000930  -0.006264   0.004491  -0.001147  -0.000019   0.000016
    21  H    0.049444   0.015599   0.003802   0.003698  -0.000351   0.000673
    22  H    0.209144  -0.020709   0.103808  -0.142894   0.034207   0.000555
    23  H   -0.016810   0.095132   0.288804   0.071967  -0.044900  -0.060541
    24  H   -0.008207   0.031131   0.043471   0.236021   0.000010  -0.032656
    25  H    0.000517  -0.017579  -0.013108  -0.084704   0.185656   0.121065
    26  C    0.007996  -1.550385   1.221722   0.500610  -0.365856  -2.972802
    27  C   -0.016485  -0.457653  -1.224511  -0.240439  -1.668211  -2.672923
    28  F    0.000035   0.020572   0.067116  -0.003198   0.046354   0.001639
    29  F    0.000003   0.005203  -0.003105   0.029062  -0.077945   0.258754
    30  F    0.000009   0.004141  -0.004733   0.030616  -0.080380   0.255526
    31  F   -0.001097   0.129497   0.052001   0.003052   0.015403   0.056712
    32  F    0.000160   0.030290  -0.001108  -0.010339  -0.000081  -0.172457
    33  F    0.000143   0.028892  -0.005449  -0.008252  -0.001520  -0.170147
              13         14         15         16         17         18
     1  C    0.000286   0.410705   0.417199   0.417563  -0.029554  -0.031453
     2  C   -0.000701  -0.085566  -0.064560  -0.064530   0.418425   0.420446
     3  C    0.012775   0.027959  -0.008530  -0.008489  -0.074883  -0.079440
     4  N    0.032866   0.000488   0.000618   0.000584   0.007906   0.007918
     5  C    0.186354  -0.002568  -0.000144  -0.000559  -0.007979  -0.004016
     6  O    0.080679   0.000009  -0.000065  -0.000063  -0.000233  -0.000231
     7  N    0.096077   0.000008   0.000010   0.000008  -0.000055   0.000099
     8  C   -4.026677  -0.000045  -0.000018  -0.000023  -0.000809  -0.000670
     9  C    1.273749   0.000001  -0.000024  -0.000034  -0.000172  -0.000041
    10  C   -0.129424  -0.000001  -0.000003  -0.000002  -0.000000   0.000011
    11  C  -11.016477   0.000000   0.000000   0.000000   0.000007   0.000003
    12  C  -11.580995  -0.000000  -0.000000  -0.000000  -0.000006  -0.000003
    13  C   31.689823  -0.000000   0.000001   0.000001   0.000003   0.000006
    14  H   -0.000000   0.487106  -0.023915  -0.023917  -0.003043  -0.003042
    15  H    0.000001  -0.023915   0.488834  -0.027760  -0.004780   0.003892
    16  H    0.000001  -0.023917  -0.027760   0.488887   0.003891  -0.004788
    17  H    0.000003  -0.003043  -0.004780   0.003891   0.505002  -0.033355
    18  H    0.000006  -0.003042   0.003892  -0.004788  -0.033355   0.505021
    19  H    0.000363  -0.000058  -0.000334   0.002663   0.003834  -0.005405
    20  H    0.000264  -0.000059   0.002668  -0.000331  -0.005406   0.003831
    21  H   -0.000636  -0.000003   0.000000   0.000000   0.000931   0.000961
    22  H    0.004499  -0.000000   0.000000   0.000000   0.000003   0.000003
    23  H   -0.030783  -0.000000  -0.000000  -0.000000  -0.000000  -0.000000
    24  H    0.026783   0.000000  -0.000000  -0.000000   0.000000   0.000000
    25  H    0.156937  -0.000000   0.000000   0.000000  -0.000000  -0.000000
    26  C   -1.843199  -0.000000   0.000000   0.000000   0.000000   0.000000
    27  C    2.064258  -0.000000  -0.000000  -0.000000  -0.000000  -0.000000
    28  F   -0.089056  -0.000000  -0.000000  -0.000000  -0.000000  -0.000000
    29  F   -0.120577  -0.000000  -0.000000  -0.000000  -0.000000  -0.000000
    30  F   -0.120286  -0.000000  -0.000000  -0.000000  -0.000000  -0.000000
    31  F   -0.268260   0.000000   0.000000   0.000000  -0.000000   0.000000
    32  F    0.229543  -0.000000   0.000000   0.000000   0.000000  -0.000000
    33  F    0.230925  -0.000000   0.000000   0.000000   0.000000   0.000000
              19         20         21         22         23         24
     1  C    0.006024   0.006275  -0.000786  -0.000044  -0.000002   0.000000
     2  C   -0.053210  -0.052818   0.001612   0.000060   0.000008   0.000005
     3  C    0.424217   0.426060  -0.103886   0.010993   0.000796  -0.000227
     4  N   -0.056796  -0.056754   0.210808   0.040522   0.000045   0.001125
     5  C   -0.010452  -0.012306   0.057911  -0.007573  -0.010417  -0.006930
     6  O    0.000824   0.000997   0.005869   0.004542   0.001129   0.000010
     7  N    0.000878   0.000930   0.049444   0.209144  -0.016810  -0.008207
     8  C   -0.005950  -0.006264   0.015599  -0.020709   0.095132   0.031131
     9  C    0.004706   0.004491   0.003802   0.103808   0.288804   0.043471
    10  C   -0.000983  -0.001147   0.003698  -0.142894   0.071967   0.236021
    11  C   -0.000032  -0.000019  -0.000351   0.034207  -0.044900   0.000010
    12  C    0.000052   0.000016   0.000673   0.000555  -0.060541  -0.032656
    13  C    0.000363   0.000264  -0.000636   0.004499  -0.030783   0.026783
    14  H   -0.000058  -0.000059  -0.000003  -0.000000  -0.000000   0.000000
    15  H   -0.000334   0.002668   0.000000   0.000000  -0.000000  -0.000000
    16  H    0.002663  -0.000331   0.000000   0.000000  -0.000000  -0.000000
    17  H    0.003834  -0.005406   0.000931   0.000003  -0.000000   0.000000
    18  H   -0.005405   0.003831   0.000961   0.000003  -0.000000   0.000000
    19  H    0.492340  -0.035988   0.002328   0.000004  -0.000001   0.000000
    20  H   -0.035988   0.492090   0.002333   0.000004  -0.000001   0.000000
    21  H    0.002328   0.002333   0.341387   0.001810  -0.000001   0.000004
    22  H    0.000004   0.000004   0.001810   0.332618  -0.000090   0.005471
    23  H   -0.000001  -0.000001  -0.000001  -0.000090   0.396585  -0.000107
    24  H    0.000000   0.000000   0.000004   0.005471  -0.000107   0.469576
    25  H   -0.000000  -0.000000  -0.000000  -0.000008   0.000011  -0.003943
    26  C   -0.000022  -0.000017  -0.000093   0.000826  -0.014018   0.005344
    27  C    0.000000  -0.000000   0.000007   0.001029   0.008750   0.001990
    28  F   -0.000000  -0.000000  -0.000000  -0.000000   0.000043   0.000012
    29  F    0.000000  -0.000000   0.000000   0.000000   0.000011   0.000004
    30  F   -0.000000   0.000000   0.000000   0.000000   0.000011   0.000004
    31  F    0.000000   0.000000   0.000000  -0.000001   0.008798  -0.000001
    32  F   -0.000000   0.000000  -0.000000  -0.000000  -0.000171   0.000001
    33  F    0.000000  -0.000000  -0.000000  -0.000000  -0.000169   0.000001
              25         26         27         28         29         30
     1  C    0.000000   0.000131  -0.000017   0.000000  -0.000000  -0.000000
     2  C    0.000000  -0.000235   0.000098   0.000000  -0.000000   0.000000
     3  C    0.000032   0.020178  -0.004522   0.000003  -0.000001  -0.000001
     4  N    0.000010   0.014375  -0.000493   0.000001   0.000000   0.000000
     5  C    0.003889   0.211873  -0.192025   0.000648   0.000133   0.000053
     6  O   -0.000000   0.006012   0.000209   0.000003  -0.000001  -0.000001
     7  N    0.000517   0.007996  -0.016485   0.000035   0.000003   0.000009
     8  C   -0.017579  -1.550385  -0.457653   0.020572   0.005203   0.004141
     9  C   -0.013108   1.221722  -1.224511   0.067116  -0.003105  -0.004733
    10  C   -0.084704   0.500610  -0.240439  -0.003198   0.029062   0.030616
    11  C    0.185656  -0.365856  -1.668211   0.046354  -0.077945  -0.080380
    12  C    0.121065  -2.972802  -2.672923   0.001639   0.258754   0.255526
    13  C    0.156937  -1.843199   2.064258  -0.089056  -0.120577  -0.120286
    14  H   -0.000000  -0.000000  -0.000000  -0.000000  -0.000000  -0.000000
    15  H    0.000000   0.000000  -0.000000  -0.000000  -0.000000  -0.000000
    16  H    0.000000   0.000000  -0.000000  -0.000000  -0.000000  -0.000000
    17  H   -0.000000   0.000000  -0.000000  -0.000000  -0.000000  -0.000000
    18  H   -0.000000   0.000000  -0.000000  -0.000000  -0.000000  -0.000000
    19  H   -0.000000  -0.000022   0.000000  -0.000000   0.000000  -0.000000
    20  H   -0.000000  -0.000017  -0.000000  -0.000000  -0.000000   0.000000
    21  H   -0.000000  -0.000093   0.000007  -0.000000   0.000000   0.000000
    22  H   -0.000008   0.000826   0.001029  -0.000000   0.000000   0.000000
    23  H    0.000011  -0.014018   0.008750   0.000043   0.000011   0.000011
    24  H   -0.003943   0.005344   0.001990   0.000012   0.000004   0.000004
    25  H    0.434541   0.008458  -0.055904   0.000611  -0.000462  -0.000455
    26  C    0.008458  11.084126  -2.276040   0.180063   0.012668   0.012054
    27  C   -0.055904  -2.276040  11.052775  -0.098200   0.030607   0.037421
    28  F    0.000611   0.180063  -0.098200   9.280438  -0.035653  -0.035604
    29  F   -0.000462   0.012668   0.030607  -0.035653   9.218717  -0.049982
    30  F   -0.000455   0.012054   0.037421  -0.035604  -0.049982   9.219057
    31  F    0.000009   0.126917   0.007349   0.000314  -0.000007  -0.000007
    32  F    0.000000   0.007366   0.060455  -0.012070  -0.000868   0.000190
    33  F    0.000001   0.005944   0.063711  -0.011940   0.000193  -0.000854
              31         32         33
     1  C   -0.000000   0.000000   0.000000
     2  C    0.000013  -0.000001  -0.000001
     3  C    0.000027   0.000003  -0.000000
     4  N   -0.000011   0.000003   0.000003
     5  C   -0.000307   0.000205  -0.000147
     6  O   -0.000732   0.000013   0.000008
     7  N   -0.001097   0.000160   0.000143
     8  C    0.129497   0.030290   0.028892
     9  C    0.052001  -0.001108  -0.005449
    10  C    0.003052  -0.010339  -0.008252
    11  C    0.015403  -0.000081  -0.001520
    12  C    0.056712  -0.172457  -0.170147
    13  C   -0.268260   0.229543   0.230925
    14  H    0.000000  -0.000000  -0.000000
    15  H    0.000000   0.000000   0.000000
    16  H    0.000000   0.000000   0.000000
    17  H   -0.000000   0.000000   0.000000
    18  H    0.000000  -0.000000   0.000000
    19  H    0.000000  -0.000000   0.000000
    20  H    0.000000   0.000000  -0.000000
    21  H    0.000000  -0.000000  -0.000000
    22  H   -0.000001  -0.000000  -0.000000
    23  H    0.008798  -0.000171  -0.000169
    24  H   -0.000001   0.000001   0.000001
    25  H    0.000009   0.000000   0.000001
    26  C    0.126917   0.007366   0.005944
    27  C    0.007349   0.060455   0.063711
    28  F    0.000314  -0.012070  -0.011940
    29  F   -0.000007  -0.000868   0.000193
    30  F   -0.000007   0.000190  -0.000854
    31  F    9.270692  -0.034247  -0.034047
    32  F   -0.034247   9.210864  -0.046277
    33  F   -0.034047  -0.046277   9.210577
 Mulliken charges:
               1
     1  C   -0.713007
     2  C   -0.367166
     3  C   -0.089314
     4  N   -0.648407
     5  C    0.770262
     6  O   -0.607238
     7  N   -0.599503
     8  C    0.006455
     9  C    0.819009
    10  C   -1.112049
    11  C    0.389035
    12  C   -1.644611
    13  C   -0.859119
    14  H    0.215942
    15  H    0.216913
    16  H    0.216898
    17  H    0.220275
    18  H    0.220252
    19  H    0.230997
    20  H    0.231151
    21  H    0.406579
    22  H    0.421223
    23  H    0.305922
    24  H    0.231110
    25  H    0.264428
    26  C    1.596004
    27  C    1.578761
    28  F   -0.312129
    29  F   -0.266755
    30  F   -0.266781
    31  F   -0.332065
    32  F   -0.261473
    33  F   -0.261597
 Sum of Mulliken charges =  -0.00000
 Mulliken charges with hydrogens summed into heavy atoms:
               1
     1  C   -0.063254
     2  C    0.073361
     3  C    0.372834
     4  N   -0.241828
     5  C    0.770262
     6  O   -0.607238
     7  N   -0.178280
     8  C    0.006455
     9  C    1.124931
    10  C   -0.880939
    11  C    0.653462
    12  C   -1.644611
    13  C   -0.859119
    26  C    1.596004
    27  C    1.578761
    28  F   -0.312129
    29  F   -0.266755
    30  F   -0.266781
    31  F   -0.332065
    32  F   -0.261473
    33  F   -0.261597
 Electronic spatial extent (au):  <R**2>=           9823.6886
 Charge=             -0.0000 electrons
 Dipole moment (field-independent basis, Debye):
    X=              7.8955    Y=             -7.1429    Z=             -0.1272  Tot=             10.6478
 Quadrupole moment (field-independent basis, Debye-Ang):
   XX=           -110.9223   YY=           -112.3576   ZZ=           -125.0797
   XY=            -10.7093   XZ=             -0.3386   YZ=              0.1001
 Traceless Quadrupole moment (field-independent basis, Debye-Ang):
   XX=              5.1975   YY=              3.7623   ZZ=             -8.9598
   XY=            -10.7093   XZ=             -0.3386   YZ=              0.1001
 Octapole moment (field-independent basis, Debye-Ang**2):
  XXX=            144.0043  YYY=            -28.3854  ZZZ=              0.2839  XYY=             -8.4446
  XXY=            -34.7089  XXZ=             -0.9924  XZZ=            -25.5321  YZZ=             15.3889
  YYZ=             -0.5692  XYZ=              0.3308
 Hexadecapole moment (field-independent basis, Debye-Ang**3):
 XXXX=          -9772.7789 YYYY=          -1351.3839 ZZZZ=           -293.9890 XXXY=           -224.2313
 XXXZ=             -3.9795 YYYX=            -74.7858 YYYZ=              0.6440 ZZZX=              0.2011
 ZZZY=             -0.3248 XXYY=          -1951.9481 XXZZ=          -1824.3819 YYZZ=           -308.6056
 XXYZ=              1.1153 YYXZ=             -2.5362 ZZXY=             -6.9282
 N-N= 1.751149168815D+03 E-N=-6.434178370153D+03  KE= 1.236787832983D+03
 D1PCM: PCM CHGder 1st derivatives, ID1Alg=3 FixD1E=F DoIter=F DoCFld=F I1PDM=0.
 Calling FoFJK, ICntrl=      2127 FMM=F ISym2X=0 I1Cent= 0 IOpClX= 0 NMat=1 NMatS=1 NMatT=0.
 ***** Axes restored to original set *****
 -------------------------------------------------------------------
 Center     Atomic                   Forces (Hartrees/Bohr)
 Number     Number              X              Y              Z
 -------------------------------------------------------------------
      1        6          -0.005085374    0.001515614   -0.000398858
      2        6           0.004187538   -0.005579610    0.000876434
      3        6          -0.005502329    0.005365302   -0.000908650
      4        7           0.010617499   -0.090232933    0.011856331
      5        6          -0.013941663    0.014820833   -0.002753020
      6        8           0.004249324    0.016955288   -0.001777283
      7        7           0.020891321   -0.078619428    0.010806604
      8        6          -0.018093413   -0.002117272   -0.000433557
      9        6           0.015053625    0.001087222    0.000557294
     10        6           0.000956848    0.002814282   -0.000320886
     11        6          -0.004067651    0.009401567   -0.000969527
     12        6          -0.006025284    0.013459692   -0.001535287
     13        6          -0.004364895   -0.024683129    0.002320604
     14        1           0.006333259    0.008955606   -0.000859841
     15        1          -0.001699932   -0.003538689    0.009790237
     16        1          -0.000948895   -0.005836809   -0.008737333
     17        1           0.000979362    0.004310765    0.008317866
     18        1           0.001715155    0.002142020   -0.009000791
     19        1           0.001730161   -0.004708119   -0.009530239
     20        1           0.000948779   -0.002209905    0.010506630
     21        1           0.000065952    0.075725114   -0.009527988
     22        1           0.013439413    0.077215051   -0.009026437
     23        1          -0.009530140    0.003337108   -0.000810168
     24        1          -0.003563872   -0.003964733    0.000290408
     25        1           0.002494862    0.000730270    0.000001978
     26        6          -0.000345025    0.008405787   -0.000907487
     27        6           0.003496199    0.006962252   -0.000619953
     28        9          -0.002625794   -0.042461699    0.004171643
     29        9          -0.005309074    0.016979762    0.029234957
     30        9          -0.003369992    0.010820162   -0.032280254
     31        9           0.035634123   -0.019321781    0.003069484
     32        9          -0.020215980    0.004408626    0.032206967
     33        9          -0.018104108   -0.002138213   -0.033609879
 -------------------------------------------------------------------
 Cartesian Forces:  Max     0.090232933 RMS     0.019936195

 GradGradGradGradGradGradGradGradGradGradGradGradGradGradGradGradGradGrad
 Berny optimization.
 FormGI is forming the generalized inverse of G from B-inverse, IUseBI=4.
 GSVD:  received Info=                   1 from GESDD.
 Internal  Forces:  Max     0.078737731 RMS     0.013208036
 Search for a local minimum.
 Step number   1 out of a maximum of  172
 All quantities printed in internal units (Hartrees-Bohrs-Radians)
 Mixed Optimization -- RFO/linear search
 Second derivative matrix not updated -- first step.
 ITU=  0
     Eigenvalues ---    0.00337   0.00424   0.00455   0.00471   0.00978
     Eigenvalues ---    0.01087   0.01252   0.01302   0.01454   0.01567
     Eigenvalues ---    0.01695   0.01808   0.01879   0.01958   0.02049
     Eigenvalues ---    0.02100   0.02115   0.02118   0.02155   0.02159
     Eigenvalues ---    0.03762   0.04420   0.04938   0.05555   0.05673
     Eigenvalues ---    0.05784   0.08032   0.09195   0.10328   0.10829
     Eigenvalues ---    0.11120   0.11402   0.11974   0.12683   0.16000
     Eigenvalues ---    0.16000   0.16000   0.16000   0.16000   0.16000
     Eigenvalues ---    0.16000   0.16000   0.21967   0.22000   0.22000
     Eigenvalues ---    0.22008   0.22359   0.23480   0.24591   0.25000
     Eigenvalues ---    0.25000   0.25000   0.25000   0.25000   0.25000
     Eigenvalues ---    0.25000   0.25000   0.25000   0.25000   0.25000
     Eigenvalues ---    0.29014   0.29200   0.29548   0.29810   0.30030
     Eigenvalues ---    0.30143   0.32340   0.32340   0.32407   0.32411
     Eigenvalues ---    0.32505   0.32506   0.32560   0.35507   0.35922
     Eigenvalues ---    0.37360   0.37733   0.38812   0.39474   0.40256
     Eigenvalues ---    0.42617   0.44342   0.44748   0.46657   0.48228
     Eigenvalues ---    0.48436   0.48437   0.48495   0.48496   0.49549
     Eigenvalues ---    0.50399   0.51949   0.95339
 RFO step:  Lambda=-6.93354551D-02 EMin= 3.37007601D-03
 Linear search not attempted -- first point.
 Maximum step size (   0.300) exceeded in Quadratic search.
    -- Step size scaled by   0.712
 Iteration  1 RMS(Cart)=  0.06479985 RMS(Int)=  0.00069373
 Iteration  2 RMS(Cart)=  0.00163148 RMS(Int)=  0.00011607
 Iteration  3 RMS(Cart)=  0.00000079 RMS(Int)=  0.00011607
 Variable       Old X    -DE/DX   Delta X   Delta X   Delta X     New X
                                 (Linear)    (Quad)   (Total)
    R1        2.88344   0.00177   0.00000   0.00343   0.00343   2.88687
    R2        2.09831  -0.01063   0.00000  -0.01917  -0.01917   2.07914
    R3        2.09928  -0.01025   0.00000  -0.01850  -0.01850   2.08078
    R4        2.09930  -0.01024   0.00000  -0.01849  -0.01849   2.08081
    R5        2.89587  -0.00551   0.00000  -0.01086  -0.01086   2.88500
    R6        2.10105  -0.00895   0.00000  -0.01620  -0.01620   2.08485
    R7        2.10099  -0.00894   0.00000  -0.01617  -0.01617   2.08482
    R8        2.74755  -0.00209   0.00000  -0.00333  -0.00333   2.74422
    R9        2.10227  -0.01030   0.00000  -0.01867  -0.01867   2.08360
   R10        2.10226  -0.01031   0.00000  -0.01869  -0.01869   2.08357
   R11        2.57948  -0.00508   0.00000  -0.00615  -0.00615   2.57334
   R12        2.15574  -0.07629   0.00000  -0.14888  -0.14888   2.00685
   R13        2.30566   0.01711   0.00000   0.01191   0.01191   2.31757
   R14        2.59465   0.00640   0.00000   0.00795   0.00795   2.60260
   R15        2.73200  -0.04126   0.00000  -0.06422  -0.06422   2.66778
   R16        2.16674  -0.07874   0.00000  -0.15594  -0.15594   2.01080
   R17        2.67416  -0.01673   0.00000  -0.02397  -0.02396   2.65020
   R18        2.64829  -0.00719   0.00000  -0.00932  -0.00933   2.63896
   R19        2.67700  -0.02102   0.00000  -0.03065  -0.03064   2.64636
   R20        2.02006   0.00911   0.00000   0.01465   0.01465   2.03471
   R21        2.62602  -0.00604   0.00000  -0.00730  -0.00731   2.61871
   R22        2.04203   0.00459   0.00000   0.00763   0.00763   2.04966
   R23        2.65096  -0.00972   0.00000  -0.01307  -0.01308   2.63788
   R24        2.04859   0.00123   0.00000   0.00207   0.00207   2.05066
   R25        2.69948  -0.01629   0.00000  -0.02458  -0.02458   2.67490
   R26        2.87904  -0.00904   0.00000  -0.01741  -0.01741   2.86164
   R27        2.87679  -0.00910   0.00000  -0.01747  -0.01747   2.85932
   R28        2.61697  -0.04050   0.00000  -0.05228  -0.05228   2.56469
   R29        2.61414  -0.03679   0.00000  -0.04725  -0.04725   2.56689
   R30        2.61415  -0.03674   0.00000  -0.04719  -0.04719   2.56696
   R31        2.60323  -0.04192   0.00000  -0.05283  -0.05283   2.55040
   R32        2.61476  -0.03275   0.00000  -0.04211  -0.04211   2.57265
   R33        2.61477  -0.03275   0.00000  -0.04211  -0.04211   2.57267
    A1        1.91254   0.00324   0.00000   0.01051   0.01047   1.92300
    A2        1.92591   0.00234   0.00000   0.00705   0.00702   1.93292
    A3        1.92576   0.00237   0.00000   0.00714   0.00711   1.93287
    A4        1.89673  -0.00262   0.00000  -0.00770  -0.00775   1.88898
    A5        1.89668  -0.00262   0.00000  -0.00771  -0.00775   1.88893
    A6        1.90573  -0.00288   0.00000  -0.00980  -0.00982   1.89591
    A7        1.94131  -0.00076   0.00000  -0.00055  -0.00054   1.94077
    A8        1.90032   0.00144   0.00000   0.00632   0.00632   1.90664
    A9        1.89997   0.00147   0.00000   0.00642   0.00642   1.90639
   A10        1.91088  -0.00032   0.00000  -0.00212  -0.00213   1.90875
   A11        1.91115  -0.00034   0.00000  -0.00221  -0.00222   1.90893
   A12        1.89970  -0.00149   0.00000  -0.00798  -0.00801   1.89170
   A13        1.94031  -0.00453   0.00000  -0.01007  -0.01005   1.93026
   A14        1.90465   0.00253   0.00000   0.00828   0.00828   1.91293
   A15        1.90438   0.00258   0.00000   0.00847   0.00847   1.91284
   A16        1.90574   0.00101   0.00000   0.00174   0.00176   1.90750
   A17        1.90585   0.00096   0.00000   0.00155   0.00158   1.90742
   A18        1.90256  -0.00256   0.00000  -0.01009  -0.01011   1.89245
   A19        2.12039  -0.00176   0.00000  -0.00432  -0.00432   2.11607
   A20        2.07389  -0.00147   0.00000  -0.00513  -0.00513   2.06877
   A21        2.08890   0.00322   0.00000   0.00945   0.00945   2.09834
   A22        2.07497   0.01765   0.00000   0.03935   0.03935   2.11432
   A23        2.09072  -0.02609   0.00000  -0.05816  -0.05816   2.03257
   A24        2.11749   0.00844   0.00000   0.01881   0.01881   2.13630
   A25        2.23067  -0.00282   0.00000  -0.00695  -0.00695   2.22372
   A26        2.02451   0.00679   0.00000   0.02017   0.02017   2.04468
   A27        2.02800  -0.00396   0.00000  -0.01322  -0.01322   2.01479
   A28        2.17628  -0.00614   0.00000  -0.01414  -0.01414   2.16214
   A29        2.05689  -0.00120   0.00000  -0.00312  -0.00312   2.05377
   A30        2.05001   0.00733   0.00000   0.01726   0.01727   2.06728
   A31        2.13134  -0.00562   0.00000  -0.01484  -0.01482   2.11651
   A32        2.10873  -0.00165   0.00000  -0.00643  -0.00644   2.10229
   A33        2.04311   0.00727   0.00000   0.02127   0.02126   2.06438
   A34        2.12037  -0.00676   0.00000  -0.01411  -0.01413   2.10624
   A35        2.11030   0.00060   0.00000  -0.00158  -0.00157   2.10873
   A36        2.05251   0.00616   0.00000   0.01569   0.01570   2.06821
   A37        2.12274  -0.00118   0.00000  -0.00085  -0.00087   2.12188
   A38        2.06242   0.00293   0.00000   0.00770   0.00771   2.07013
   A39        2.09802  -0.00175   0.00000  -0.00685  -0.00684   2.09118
   A40        2.06880  -0.00138   0.00000  -0.00303  -0.00303   2.06577
   A41        2.01174  -0.00916   0.00000  -0.02044  -0.02044   1.99130
   A42        2.20264   0.01054   0.00000   0.02347   0.02347   2.22611
   A43        2.07310   0.00760   0.00000   0.01557   0.01558   2.08869
   A44        2.06875  -0.01502   0.00000  -0.03280  -0.03281   2.03594
   A45        2.14133   0.00742   0.00000   0.01724   0.01723   2.15856
   A46        1.96385  -0.00080   0.00000  -0.00392  -0.00389   1.95996
   A47        1.91676   0.01576   0.00000   0.03620   0.03574   1.95250
   A48        1.91669   0.01573   0.00000   0.03612   0.03567   1.95236
   A49        1.87207  -0.00958   0.00000  -0.02343  -0.02341   1.84867
   A50        1.87212  -0.00959   0.00000  -0.02349  -0.02346   1.84866
   A51        1.92139  -0.01314   0.00000  -0.02507  -0.02591   1.89548
   A52        2.00493   0.01082   0.00000   0.02645   0.02605   2.03098
   A53        1.90225   0.01137   0.00000   0.02426   0.02397   1.92623
   A54        1.90226   0.01137   0.00000   0.02423   0.02395   1.92620
   A55        1.87824  -0.01052   0.00000  -0.02122  -0.02157   1.85667
   A56        1.87822  -0.01052   0.00000  -0.02123  -0.02158   1.85664
   A57        1.89532  -0.01454   0.00000  -0.03738  -0.03752   1.85780
    D1        3.14137   0.00000   0.00000   0.00001   0.00001   3.14138
    D2        1.03417  -0.00007   0.00000  -0.00115  -0.00115   1.03302
    D3       -1.03451   0.00006   0.00000   0.00112   0.00112  -1.03339
    D4        1.05347  -0.00026   0.00000  -0.00147  -0.00148   1.05199
    D5       -1.05373  -0.00033   0.00000  -0.00263  -0.00264  -1.05636
    D6       -3.12241  -0.00020   0.00000  -0.00035  -0.00036  -3.12278
    D7       -1.05407   0.00027   0.00000   0.00154   0.00155  -1.05252
    D8        3.12192   0.00020   0.00000   0.00038   0.00039   3.12231
    D9        1.05323   0.00033   0.00000   0.00265   0.00266   1.05589
   D10        3.14134   0.00002   0.00000   0.00008   0.00008   3.14143
   D11        1.03834  -0.00004   0.00000  -0.00114  -0.00113   1.03721
   D12       -1.03888   0.00005   0.00000   0.00120   0.00119  -1.03769
   D13       -1.04087   0.00112   0.00000   0.00623   0.00623  -1.03464
   D14        3.13931   0.00106   0.00000   0.00500   0.00501  -3.13886
   D15        1.06210   0.00116   0.00000   0.00735   0.00733   1.06943
   D16        1.04063  -0.00110   0.00000  -0.00613  -0.00612   1.03451
   D17       -1.06238  -0.00116   0.00000  -0.00735  -0.00733  -1.06971
   D18       -3.13960  -0.00107   0.00000  -0.00500  -0.00501   3.13858
   D19        3.14076   0.00002   0.00000   0.00012   0.00012   3.14089
   D20       -0.00065   0.00002   0.00000   0.00013   0.00013  -0.00051
   D21       -1.04006   0.00097   0.00000   0.00521   0.00521  -1.03485
   D22        2.10172   0.00097   0.00000   0.00522   0.00522   2.10694
   D23        1.03867  -0.00097   0.00000  -0.00508  -0.00508   1.03359
   D24       -2.10274  -0.00096   0.00000  -0.00507  -0.00507  -2.10781
   D25       -0.00148   0.00008   0.00000   0.00066   0.00066  -0.00082
   D26       -3.14041  -0.00005   0.00000  -0.00042  -0.00042  -3.14084
   D27        3.13993   0.00008   0.00000   0.00065   0.00065   3.14058
   D28        0.00099  -0.00005   0.00000  -0.00043  -0.00043   0.00056
   D29        3.14135   0.00002   0.00000   0.00016   0.00016   3.14150
   D30        0.00200   0.00005   0.00000   0.00035   0.00035   0.00236
   D31        0.00248  -0.00013   0.00000  -0.00097  -0.00097   0.00150
   D32       -3.13687  -0.00010   0.00000  -0.00078  -0.00078  -3.13764
   D33        0.02652  -0.00007   0.00000  -0.00058  -0.00058   0.02593
   D34       -3.11645  -0.00008   0.00000  -0.00068  -0.00068  -3.11713
   D35       -3.11733  -0.00008   0.00000  -0.00074  -0.00074  -3.11807
   D36        0.02289  -0.00009   0.00000  -0.00084  -0.00084   0.02205
   D37        3.14084  -0.00001   0.00000  -0.00008  -0.00008   3.14076
   D38        0.00183  -0.00011   0.00000  -0.00085  -0.00085   0.00098
   D39        0.00062   0.00001   0.00000   0.00003   0.00003   0.00065
   D40       -3.13839  -0.00009   0.00000  -0.00074  -0.00074  -3.13913
   D41       -3.14134   0.00004   0.00000   0.00029   0.00029  -3.14105
   D42        0.00165   0.00001   0.00000   0.00006   0.00007   0.00172
   D43       -0.00102   0.00002   0.00000   0.00018   0.00018  -0.00084
[...]
 4258,0.00008243,0.00002104,0.00001991,0.00013733,0.00000736,-0.0001391
 9,-0.00015369,0.00001459,-0.00035708,-0.00014341,-0.00008457,0.0005291
 0,0.00068167,0.00033075,-0.00831039,-0.00328304,0.00305055,-0.05568715
 ,-0.17322717,0.09669618,0.05178273,0.25517987,0.00000560,0.00001992,-0
 .00000082,0.00001085,-0.00003257,-0.00001226,-0.00011170,0.00007600,-0
 .00004632,0.00041077,0.00007787,0.00009126,-0.00091921,0.00059632,-0.0
 0017719,0.00019626,-0.00031600,0.00012697,0.00135720,-0.00008307,0.000
 09339,-0.00088614,-0.00080173,-0.00002396,0.00105013,0.00040558,0.0001
 2474,-0.00012394,0.00082330,0.00007870,0.00354796,-0.00097981,-0.00024
 219,0.00483270,0.01497242,-0.00215541,-0.00193265,0.00045739,0.0006491
 5,0.00001334,0.00000054,-0.00000008,0.00000013,-0.00000746,0.00000426,
 -0.00000153,-0.00000077,-0.00000026,-0.00000258,0.00000661,0.00000175,
 -0.00000198,-0.00000216,0.00000609,0.00003004,-0.00001410,-0.00000416,
 0.00000925,-0.00000941,0.00000238,-0.00002416,-0.00004667,-0.00002911,
 -0.00002980,-0.00006156,-0.00004130,0.00005321,0.00007469,-0.00009171,
 0.00036852,0.00010476,0.00001486,-0.00018081,-0.00028065,-0.00011081,0
 .00206144,0.00089063,-0.00588419,0.05257192,0.09426748,-0.15602618,-0.
 05525490,-0.16034197,0.23186382,-0.00001983,-0.00005508,-0.00000412,-0
 .00002113,0.00010367,0.00001423,0.00032567,-0.00020453,0.00008107,-0.0
 0122642,-0.00039686,-0.00016787,0.00251737,-0.00082649,0.00013826,-0.0
 0079251,0.00033528,-0.00009566,-0.00345968,-0.00019638,0.00004277,0.00
 241395,0.00185164,-0.00001274,-0.00279528,0.00103264,-0.00073804,-0.00
 071572,0.00095607,-0.00039749,-0.00212006,0.00105061,0.00032160,-0.031
 78609,0.04122584,0.00984757,-0.00396491,-0.00627977,0.00210796,-0.0000
 4167,-0.00000457,-0.00000339,0.00000694,0.00001078,-0.00000016,0.00000
 364,0.00001036,0.00000313,0.00000832,-0.00000644,-0.00000310,-0.000000
 29,-0.00001405,0.00000297,-0.00009129,0.00005308,0.00001770,-0.0000123
 6,0.00001534,0.00000679,0.00003761,0.00013625,0.00003967,-0.00006092,0
 .00019371,0.00000134,-0.00040214,-0.00053117,-0.00023335,-0.00018997,-
 0.00018255,0.00008920,-0.00395443,-0.00077562,0.00063841,-0.00002777,-
 0.00381408,0.00075882,-0.15972395,0.08886635,0.02662606,0.01484041,0.0
 1003333,-0.00802247,0.17443268,0.00000880,0.00001660,0.00000049,0.0000
 0058,-0.00003666,-0.00000466,-0.00009261,0.00004272,-0.00003137,0.0003
 9901,0.00020752,0.00006930,-0.00087652,0.00009186,-0.00003079,0.000259
 67,0.00000980,0.00002638,0.00128674,0.00041513,-0.00006588,-0.00151551
 ,-0.00051161,-0.00010913,0.00037900,-0.00008160,0.00017175,0.00049110,
 0.00162113,0.00032623,-0.00370906,-0.00539234,0.00159673,0.01092206,-0
 .00731543,-0.00361804,0.00102979,0.00256812,-0.00072071,0.00001457,0.0
 0000264,0.00000102,-0.00000362,-0.00000288,-0.00000349,-0.00000357,-0.
 00000262,0.00000280,-0.00000145,0.00000388,0.00000730,0.00000161,0.000
 00656,-0.00000615,0.00002669,-0.00001424,0.00000181,0.00000287,-0.0000
 0475,-0.00000636,-0.00000036,-0.00006093,-0.00002931,0.00009225,-0.000
 09670,-0.00001266,0.00013988,0.00016606,0.00007598,0.00021028,0.000056
 14,-0.00002609,-0.00283026,0.00203859,-0.00038634,-0.00401134,0.000523
 22,-0.00018049,0.09826350,-0.18657170,-0.03214949,0.02205417,-0.076285
 73,0.02181332,-0.13790728,0.30579671,0.00000147,0.00000300,-0.00000032
 ,-0.00000026,-0.00000425,-0.00000621,-0.00000849,0.00000582,-0.0000184
 4,0.00004892,0.00003174,0.00001928,-0.00008567,-0.00001760,-0.00004414
 ,0.00004880,0.00002243,0.00005961,0.00008006,-0.00001406,0.00006245,-0
 .00011423,0.00037900,-0.00002316,-0.00020180,-0.00078362,-0.00032014,0
 .00032910,-0.00004141,0.00017240,-0.00027101,-0.00046256,0.00045751,0.
 00285685,-0.00456544,0.00753103,0.00125364,0.00088751,0.00140551,0.000
 00244,0.00000053,-0.00000060,0.00000024,-0.00000239,0.00000031,-0.0000
 0144,0.00000125,0.00000214,0.00000011,0.00000340,0.00000389,0.00000025
 ,-0.00000160,0.00000081,0.00000059,0.00000110,0.00000441,-0.00000098,-
 0.00000431,-0.00000003,0.00000062,-0.00001132,-0.00002086,-0.00000082,
 -0.00000514,-0.00002738,0.00007477,0.00004476,-0.00025232,0.00004162,0
 .00000614,-0.00001372,0.00068709,-0.00003117,-0.00031155,-0.00026673,0
 .00011981,-0.00139112,0.02827432,-0.03046356,-0.07882009,-0.01261688,0
 .03116188,0.00885292,-0.03888160,0.05974683,0.09587486,-0.00002031,-0.
 00006302,-0.00000453,-0.00002730,0.00011802,0.00000969,0.00037603,-0.0
 0023938,0.00009390,-0.00143879,-0.00035527,-0.00015609,0.00322114,-0.0
 0175802,0.00021481,-0.00061121,0.00086224,-0.00013768,-0.00508920,-0.0
 0020016,-0.00018976,0.00371511,0.00166746,-0.00033087,-0.00226981,-0.0
 0216295,0.00162500,-0.00226174,0.00031530,0.00182816,-0.00148377,0.003
 65940,-0.00169998,-0.01731608,-0.01721037,-0.03674370,0.00318122,-0.00
 168087,0.00011982,-0.00004463,-0.00000314,-0.00000417,0.00000652,0.000
 01071,-0.00000233,0.00000104,0.00001261,0.00000722,0.00001165,-0.00000
 362,0.00000261,0.00000061,-0.00001582,0.00000183,-0.00012068,0.0000623
 7,0.00002428,-0.00001827,0.00001848,0.00000145,0.00004986,0.00015723,0
 .00003294,-0.00004611,0.00025880,-0.00001195,-0.00008125,-0.00012023,0
 .00014547,-0.00043700,-0.00021806,0.00016090,0.00007070,-0.00036267,-0
 .00094271,-0.00155541,-0.00344187,-0.00085272,-0.11136207,-0.02803395,
 -0.07166392,0.01523972,0.00390730,0.00185799,0.01646728,0.01168857,0.0
 1838573,0.10261502,-0.00000615,-0.00002470,-0.00000182,-0.00001322,0.0
 0004410,0.00000282,0.00015030,-0.00010221,0.00003017,-0.00055516,-0.00
 010807,-0.00004587,0.00126712,-0.00079761,0.00010448,-0.00022943,0.000
 41046,-0.00005822,-0.00201831,-0.00006963,-0.00006954,0.00125652,0.001
 45432,-0.00025288,-0.00189730,-0.00079544,0.00071628,-0.00025049,0.000
 72125,0.00055750,0.00056933,0.00058344,0.00045136,-0.01113351,0.005766
 56,-0.01367097,0.00084478,-0.00207617,-0.00073867,-0.00001577,0.000000
 02,-0.00000151,0.00000157,0.00000392,-0.00000287,-0.00000139,0.0000050
 0,0.00000502,0.00000530,0.00000023,0.00000439,0.00000090,-0.00000539,-
 0.00000150,-0.00005023,0.00002536,0.00001336,-0.00000822,0.00000680,-0
 .00000216,0.00002112,0.00005498,0.00000435,-0.00001443,0.00009312,-0.0
 0001750,-0.00014514,-0.00013369,0.00016115,-0.00003244,-0.00008279,-0.
 00003824,0.00029417,0.00021270,-0.00042809,-0.00431040,-0.00288300,-0.
 00301005,-0.02762628,-0.09004477,-0.05746967,0.00686515,0.01135853,0.0
 3074544,0.00248650,-0.03632586,-0.05582467,0.02662131,0.11526419,-0.00
 001058,-0.00003612,-0.00000520,-0.00001743,0.00006831,-0.00000256,0.00
 022316,-0.00014881,0.00002526,-0.00083718,-0.00018984,-0.00003879,0.00
 183841,-0.00096678,0.00005287,-0.00039620,0.00047422,-0.00000342,-0.00
 289064,-0.00006656,0.00001492,0.00216582,0.00093731,-0.00036742,-0.001
 63834,-0.00086932,0.00076654,-0.00145933,-0.00006471,0.00097944,-0.001
 68672,0.00182641,-0.00081842,-0.01349211,-0.01012610,-0.01162175,0.001
 47204,-0.00127911,0.00037024,-0.00002456,-0.00000083,-0.00000355,0.000
 00449,0.00000224,0.,-0.00000241,0.00001049,0.00000820,0.00000813,0.000
 00446,0.00000801,-0.00000003,-0.00001494,0.00000393,-0.00007642,0.0000
 4277,0.00002182,-0.00000818,0.00000665,0.00000272,0.00002576,0.0000785
 1,-0.00001596,-0.00000668,0.00013481,-0.00007050,-0.00010603,-0.000123
 69,0.00000176,-0.00034681,-0.00016013,0.00004426,0.00022917,0.00009726
 ,-0.00084387,-0.00125309,-0.00266938,-0.00458177,-0.07267334,-0.055055
 84,-0.21780785,-0.00744034,0.01671305,-0.07989168,0.00833971,-0.046569
 00,-0.03469497,0.08947828,0.09490375,0.34466011,-0.00000948,-0.0000035
 3,-0.00000242,0.00002451,0.00000727,0.00000226,-0.00000346,0.00004319,
 0.00002663,-0.00003218,-0.00036658,0.00000523,-0.00046032,0.00178830,-
 0.00029470,-0.00016193,-0.00116155,0.00003618,0.00108386,-0.00015000,0
 .00005963,0.00099046,-0.00077394,-0.00038212,-0.00431491,-0.00318506,-
 0.00110996,0.00002931,-0.00022304,0.00013416,-0.00042214,0.00006124,-0
 .00017415,0.00272867,0.00107816,0.00039950,-0.00668376,0.00951314,0.00
 370151,-0.00001121,-0.00001061,-0.00000111,0.00000760,0.00000397,0.000
 01179,0.00000961,0.00000419,-0.00000999,-0.00000600,-0.00001073,-0.000
 01422,-0.00000689,-0.00001133,0.00001033,0.00002409,0.00000448,-0.0000
 2862,0.00002186,0.00001028,0.00002284,-0.00004303,0.00002097,0.0000480
 4,-0.00000059,0.00000164,0.00003417,0.00196628,-0.00255820,0.00037186,
 0.00020111,-0.00009924,0.00005453,0.00010744,0.00023354,-0.00009759,-0
 .18530882,0.10405172,0.03407375,0.00023614,-0.00407078,0.00022614,-0.0
 0018754,0.00158764,-0.00029987,-0.00039846,0.00102557,0.00014533,-0.00
 012149,0.00110822,0.00001382,0.29909265,-0.00000377,-0.00004215,-0.000
 00088,-0.00004169,0.00006908,0.00001167,0.00027442,-0.00022637,0.00002
 927,-0.00091305,0.00001532,-0.00009523,0.00228182,-0.00177022,0.000306
 89,-0.00078995,0.00119993,-0.00013291,-0.00275840,0.00016982,-0.000106
 18,0.00292455,0.00161731,0.00019594,-0.00017522,-0.00404659,-0.0002038
 9,0.00007149,-0.00060838,-0.00005650,0.00215258,-0.00183487,0.00079122
 ,-0.00663270,-0.00527032,-0.00084936,0.04034692,-0.03101789,-0.0101001
 1,-0.00002113,0.00000807,-0.00000143,-0.00000320,0.00000583,-0.0000154
 2,-0.00000821,0.00000429,0.00001551,0.00001173,0.00000549,0.00001555,0
 .00000542,0.00000153,-0.00001264,-0.00008992,0.00003954,0.00004532,-0.
 00002393,0.00000437,-0.00001804,0.00006414,0.00006443,-0.00001350,-0.0
 0002276,0.00010094,-0.00004030,-0.00019383,-0.00477306,-0.00042767,-0.
 00009062,-0.00014789,-0.00003651,-0.00034869,-0.00078529,0.00025026,0.
 09338200,-0.17154360,-0.02901131,-0.00371609,0.00008713,-0.00061242,0.
 00075768,0.00035195,-0.00023172,0.00117264,-0.00046670,-0.00010827,0.0
 0090335,0.00026806,0.00075718,-0.14635775,0.18895289,0.00000249,0.0000
 0159,-0.00000432,-0.00000637,-0.00000082,-0.00000249,0.00000823,-0.000
 01429,-0.00003759,-0.00001444,0.00004853,0.00003704,0.00007991,-0.0002
 1173,-0.00003818,-0.00002195,0.00017856,0.00014425,-0.00017661,0.00005
 832,0.00008976,0.00012365,-0.00035162,0.00005599,0.00068138,0.00066804
 ,0.00060673,-0.00041736,0.00009794,0.00005145,0.00061053,0.00026078,-0
 .00039726,-0.00065379,-0.00078485,0.00137658,0.00298212,-0.00136196,0.
 00749224,0.00000269,0.00000236,0.00000007,0.00000022,-0.00000424,-0.00
 000019,-0.00000440,0.00000144,0.00000542,0.00000278,0.00000898,0.00000
 672,0.00000042,-0.00000359,0.00000114,-0.00001226,0.00000396,0.0000153
 3,-0.00000026,-0.00000576,-0.00000217,0.00000377,-0.00001525,-0.000032
 45,0.00000206,0.00000088,-0.00003033,-0.00013291,-0.00041228,-0.000267
 46,-0.00002504,-0.00000119,-0.00002901,-0.00002696,-0.00008735,-0.0001
 9180,0.03285382,-0.03106188,-0.08027793,-0.00001692,0.00038380,-0.0013
 9151,-0.00002825,-0.00053096,0.00075753,0.00008114,-0.00016611,0.00015
 070,0.00011398,0.00022033,0.00058152,-0.06434036,0.04563016,0.09930476
 ,-0.00000740,-0.00001827,-0.00000118,-0.00000115,0.00003066,0.00000617
 ,0.00010321,-0.00005745,0.00003072,-0.00035173,-0.00020355,-0.00004447
 ,0.00053769,0.00036099,-0.00004109,-0.00028660,-0.00027288,-0.00001077
 ,-0.00025680,-0.00010852,0.00002029,0.00059414,0.00089791,-0.00075107,
 0.00023559,-0.00010591,-0.00046073,0.00088076,-0.00053860,0.00016496,-
 0.00035771,-0.00144956,-0.00057700,-0.00160329,-0.00007371,0.00057962,
 0.00621715,-0.00825601,0.01408683,-0.00001556,-0.00000413,-0.00000111,
 0.00000351,0.00000547,0.00000120,0.00000316,0.00000407,-0.00000076,0.0
 0000110,-0.00000523,-0.00000326,-0.00000136,-0.00000558,0.00000107,-0.
 00001829,0.00001707,-0.00000118,0.00000446,0.00000808,0.00000622,0.000
 00274,0.00003960,0.00002497,0.00000104,0.00002891,0.00004188,0.0002944
 0,0.00033942,0.00039404,0.00002798,-0.00003654,0.00008925,-0.00008185,
 -0.00022741,-0.00009155,-0.08622189,-0.02143961,0.05385947,-0.00266587
 ,-0.00405209,0.00314572,-0.00369251,0.00584610,-0.00335192,0.00026565,
 0.00103943,-0.00025414,0.00059872,0.00054739,-0.00045431,-0.02930865,0
 .00667755,0.05475452,0.10643558,-0.00000885,-0.00004257,0.00000054,-0.
 00002665,0.00006840,0.00001280,0.00025197,-0.00018840,0.00005746,-0.00
 084712,-0.00014478,-0.00010543,0.00181351,-0.00080951,0.00021103,-0.00
 065715,0.00048962,-0.00017613,-0.00166338,-0.00013841,-0.00013227,0.00
 092461,0.00055643,-0.00206894,0.00214101,-0.00307573,0.00102801,0.0001
 1017,-0.00091420,0.00032218,-0.00087322,-0.00081365,-0.00136451,-0.001
 07326,0.00104258,-0.00037539,-0.01433884,-0.01077483,0.03798580,-0.000
 02658,0.00000114,-0.00000185,0.00000031,0.00001024,-0.00000922,-0.0000
 0117,0.00000547,0.00000713,0.00000766,-0.00000447,0.00000549,0.0000024
 3,-0.00000175,-0.00000873,-0.00006699,0.00003755,0.00002111,-0.0000120
 2,0.00001282,-0.00000571,0.00004841,0.00007484,0.00001783,-0.00005448,
 0.00006054,0.00005377,-0.00000285,-0.00008223,0.00107196,-0.00005250,-
 0.00005543,0.00017729,-0.00002430,-0.00022018,-0.00005494,-0.02153850,
 -0.10314341,0.06532723,-0.00330072,-0.00128078,0.00071435,0.00427329,-
 0.00134284,0.00058229,0.00088193,-0.00019721,-0.00010795,0.00126136,0.
 00063815,0.00073029,0.01437175,0.01434889,-0.02416142,0.01556758,0.090
 49793,0.00001116,0.00003518,-0.00000617,0.00001331,-0.00005433,-0.0000
 1893,-0.00017267,0.00012311,-0.00010296,0.00065044,0.00020297,0.000142
 45,-0.00130191,0.00031310,-0.00024328,0.00053776,-0.00012261,0.0003678
 5,0.00114046,0.00028247,0.00020367,-0.00042948,-0.00018924,0.00104898,
 -0.00125166,0.00283851,-0.00037364,-0.00014159,0.00049810,-0.00018760,
 0.00018406,0.00103546,0.00081238,0.00124863,-0.00025867,0.00052304,0.0
 1004779,0.01184456,-0.01783627,0.00002315,0.00000164,0.00000066,0.0000
 0105,-0.00001477,0.00000622,-0.00000573,-0.00000094,0.00000436,-0.0000
 0143,0.00001859,0.00000723,-0.00000145,-0.00000471,0.00001012,0.000033
 58,-0.00002337,0.00000841,0.00001110,-0.00002047,-0.00000062,-0.000028
 23,-0.00007605,-0.00006223,0.00009214,-0.00004542,-0.00009891,-0.00040
 507,-0.00022909,-0.00107898,0.00002356,0.00008130,-0.00015319,0.000056
 54,0.00026618,-0.00004258,0.05231007,0.06741435,-0.23856527,0.00280901
 ,0.00121793,-0.00512059,-0.00164431,-0.00117335,0.00262363,-0.00080874
 ,0.00001602,0.00064914,-0.00076333,0.00047388,0.00112132,0.04509533,-0
 .01341325,-0.03873226,-0.08472770,-0.07222053,0.37093205,-0.00001249,-
 0.00003231,-0.00000597,-0.00000434,0.00005639,0.00000582,0.00019855,-0
 .00011506,0.00002617,-0.00066849,-0.00034934,-0.00002847,0.00102091,0.
 00061134,-0.00013718,-0.00057559,-0.00046610,0.00006800,-0.00040407,-0
 .00049941,0.00011431,-0.00003444,0.00069460,0.00106606,0.00125377,-0.0
 0362163,-0.00035663,0.00048794,-0.00062477,-0.00004309,-0.00025113,-0.
 00117836,0.00100981,-0.00053148,0.00072594,0.00034469,-0.01530921,-0.0
 1113323,-0.01763841,-0.00002742,-0.00000648,-0.00000284,0.00000750,0.0
 0000567,0.00000390,0.00000297,0.00001008,0.00000293,0.00000392,-0.0000
 0199,-0.00000047,-0.00000351,-0.00001565,0.00000520,-0.00004282,0.0000
 3746,0.00000792,0.00000940,0.00001136,0.00001224,0.00000657,0.00006050
 ,0.00001007,-0.00010063,0.00002246,-0.00005668,0.00088658,0.00055103,-
 0.00053705,0.00007596,-0.00009798,-0.00011531,-0.00007332,-0.00025732,
 -0.00002558,-0.18723451,-0.06453878,-0.09118922,-0.00381917,-0.0088996
 0,-0.00276651,-0.00121172,0.00624019,0.00276635,0.00048538,0.00161542,
 0.00047210,-0.00124950,0.00626820,0.00102195,-0.07904273,0.01116460,-0
 .02642586,0.00866378,0.00291259,-0.02260583,0.27749335,-0.00001009,-0.
 00004252,-0.00000342,-0.00002506,0.00007140,0.00001016,0.00026408,-0.0
 0018913,0.00003682,-0.00089014,-0.00018373,-0.00007366,0.00184526,-0.0
 0067562,0.00010849,-0.00068323,0.00038181,-0.00006853,-0.00169027,-0.0
 0057221,0.00014418,-0.00032008,0.00056840,0.00138689,0.00228803,-0.006
 56216,-0.00069605,-0.00051767,-0.00048620,-0.00012934,-0.00024241,0.00
 022215,0.00032378,-0.00024307,0.00176855,0.00066634,-0.03691234,-0.009
 35300,-0.02419577,-0.00002809,0.00000014,-0.00000236,0.00000267,0.0000
 0742,-0.00000603,-0.00000195,0.00000801,0.00000921,0.00000832,0.000000
 17,0.00000714,0.00000119,-0.00000777,-0.00000443,-0.00007252,0.0000430
 9,0.00002649,-0.00000853,0.00001123,-0.00000204,0.00004380,0.00007453,
 -0.00000005,-0.00017497,0.00005392,-0.00002748,0.00026782,0.00003903,-
 0.00064426,-0.00003395,-0.00009728,-0.00003606,0.00000260,-0.00012669,
 -0.00001176,-0.05915529,-0.11081385,-0.04402730,-0.00276577,-0.0010661
 1,-0.00069342,0.00356583,-0.00158179,-0.00270491,0.00077884,-0.0001997
 4,0.00003413,0.00434490,-0.00346187,0.00155345,0.02406708,0.01521846,0
 .01160964,0.00544482,0.01538579,0.00118343,0.06085021,0.10156554,-0.00
 000491,-0.00001455,-0.00000655,-0.00000428,0.00002732,-0.00000087,0.00
 010152,-0.00006244,-0.00001465,-0.00034196,-0.00016016,0.00002362,0.00
 053678,0.00026636,-0.00014403,-0.00028821,-0.00019603,0.00013222,-0.00
 027744,-0.00040903,0.00014760,-0.00057143,0.00072466,-0.00022145,0.000
 46562,-0.00323791,0.00024022,0.00037609,-0.00017557,0.00006096,-0.0000
 7556,-0.00061902,0.00011373,-0.00002714,0.00141974,0.00067464,-0.01260
 624,-0.00281430,0.00071502,-0.00001216,-0.00000224,-0.00000181,0.00000
 463,-0.00000088,0.00000324,-0.00000126,0.00000687,0.00000494,0.0000034
 3,0.00000581,0.00000401,-0.00000223,-0.00001235,0.00000552,-0.00002912
 ,0.00002232,0.00001275,0.00000672,0.00000225,0.00000697,0.00000182,0.0
 0002168,-0.00001726,-0.00009627,0.00001352,-0.00004552,0.00036404,0.00
 013862,-0.00009972,0.00002942,-0.00005549,-0.00002350,-0.00002231,-0.0
 0010560,-0.00007042,-0.08964486,-0.04942623,-0.13769738,-0.00097143,-0
 .00193642,-0.00555831,0.00263168,-0.00305268,-0.00055382,0.00021037,0.
 00026006,0.00069807,-0.00060029,0.00323996,0.00210479,-0.01771792,0.00
 743857,0.01075772,-0.03643469,-0.00753355,-0.07583803,0.15499760,0.056
 22671,0.20458731\\0.00000088,0.00000177,0.00000132,0.00000074,-0.00000
 144,-0.00000130,0.00000232,0.00000477,0.00000233,0.00000326,-0.0000004
 7,-0.00000178,-0.00000117,-0.00000693,0.00000009,-0.00000135,0.0000035
 7,0.00000196,-0.00000105,-0.00000031,-0.00000278,-0.00000077,0.0000010
 1,-0.00000121,-0.00000150,-0.00000193,0.00000006,0.00000120,-0.0000007
 4,-0.00000320,-0.00000176,-0.00000364,-0.00000300,0.00000163,-0.000000
 77,-0.00000210,0.00000053,0.00000053,0.00000217,-0.00000046,0.00000161
 ,0.00000100,-0.00000028,0.00000256,0.00000259,0.00000038,0.00000007,0.
 00000285,-0.00000063,0.00000457,-0.00000248,-0.00000106,-0.00000021,-0
 .00000092,-0.00000217,-0.00000074,0.00000345,0.00000096,0.00000113,0.0
 0000292,-0.00000158,0.00000005,-0.00000344,0.00000060,0.00000133,-0.00
 000407,0.00000017,0.00000036,0.00000319,-0.00000099,-0.00000086,-0.000
 00610,-0.00000023,-0.00000055,-0.00000589,-0.00000014,0.00000013,0.000
 00598,-0.00000080,0.00000052,0.00000037,0.00000044,0.00000269,-0.00000
 063,0.00000019,-0.00000163,-0.00000305,0.00000062,-0.00000440,-0.00000
 112,0.00000030,-0.00000136,0.00000578,0.00000054,0.00000283,0.00000377
 ,0.00000116,-0.00000351,0.00000324\\\@


 TRUST EVERYONE, BUT CUT THE CARDS.
 Job cpu time:       0 days  4 hours 31 minutes  7.5 seconds.
 File lengths (MBytes):  RWF=    761 Int=      0 D2E=      0 Chk=     23 Scr=      1
 Normal termination of Gaussian 09 at Fri Feb 22 14:46:29 2019.
WARNING: pbs_rusage is deprecated and values produced may not be accurate


=============================================================================
                                     Resource usage:
                                       CPU time:              33:40:19
   JobId:    6001053.r-man2            Elapsed time:          04:14:16
   Project:             q95            Requested time:        42:00:00
   Service Units:     33.90 
                                       Max physical memory:     1512MB
                                       Max virtual memory:      2605MB
                                       Requested memory:           0MB

                                       Number of cpus:               8

                                       Max jobfs disk use:       0.7GB
                                       Requested jobfs:         20.0GB
=============================================================================

