 Entering Gaussian System, Link 0=/apps/gaussian/g09e01/g09/g09
 AtFile(1): /home/507/hio507/Basis/6-31pGd.gbs
 Initial command:
 /apps/gaussian/g09e01/g09/l1.exe "/jobfs/local/5874189.r-man2/Gau-33456.inp" -scrdir="/jobfs/local/5874189.r-man2/"
 Entering Link 1 = /apps/gaussian/g09e01/g09/l1.exe PID=     33457.
  
 Copyright (c) 1988,1990,1992,1993,1995,1998,2003,2009,2015,
            Gaussian, Inc.  All Rights Reserved.
  
 This is part of the Gaussian(R) 09 program.  It is based on
 the Gaussian(R) 03 system (copyright 2003, Gaussian, Inc.),
 the Gaussian(R) 98 system (copyright 1998, Gaussian, Inc.),
 the Gaussian(R) 94 system (copyright 1995, Gaussian, Inc.),
 the Gaussian 92(TM) system (copyright 1992, Gaussian, Inc.),
 the Gaussian 90(TM) system (copyright 1990, Gaussian, Inc.),
 the Gaussian 88(TM) system (copyright 1988, Gaussian, Inc.),
 the Gaussian 86(TM) system (copyright 1986, Carnegie Mellon
 University), and the Gaussian 82(TM) system (copyright 1983,
 Carnegie Mellon University). Gaussian is a federally registered
 trademark of Gaussian, Inc.
  
 This software contains proprietary and confidential information,
 including trade secrets, belonging to Gaussian, Inc.
  
 This software is provided under written license and may be
 used, copied, transmitted, or stored only in accord with that
 written license.
  
 The following legend is applicable only to US Government
 contracts under FAR:
  
                    RESTRICTED RIGHTS LEGEND
  
 Use, reproduction and disclosure by the US Government is
 subject to restrictions as set forth in subparagraphs (a)
 and (c) of the Commercial Computer Software - Restricted
 Rights clause in FAR 52.227-19.
  
 Gaussian, Inc.
 340 Quinnipiac St., Bldg. 40, Wallingford CT 06492
  
  
 ---------------------------------------------------------------
 Warning -- This program may not be used in any manner that
 competes with the business of Gaussian, Inc. or will provide
 assistance to any competitor of Gaussian, Inc.  The licensee
 of this program is prohibited from giving any competitor of
 Gaussian, Inc. access to this program.  By using this program,
 the user acknowledges that Gaussian, Inc. is engaged in the
 business of creating and licensing software in the field of
 computational chemistry and represents and warrants to the
 licensee that it is not a competitor of Gaussian, Inc. and that
 it will not use this program in any manner prohibited above.
 ---------------------------------------------------------------
  

 Cite this work as:
 Gaussian 09, Revision E.01,
 M. J. Frisch, G. W. Trucks, H. B. Schlegel, G. E. Scuseria, 
 M. A. Robb, J. R. Cheeseman, G. Scalmani, V. Barone, B. Mennucci, 
 G. A. Petersson, H. Nakatsuji, M. Caricato, X. Li, H. P. Hratchian, 
 A. F. Izmaylov, J. Bloino, G. Zheng, J. L. Sonnenberg, M. Hada, 
 M. Ehara, K. Toyota, R. Fukuda, J. Hasegawa, M. Ishida, T. Nakajima, 
 Y. Honda, O. Kitao, H. Nakai, T. Vreven, J. A. Montgomery, Jr., 
 J. E. Peralta, F. Ogliaro, M. Bearpark, J. J. Heyd, E. Brothers, 
 K. N. Kudin, V. N. Staroverov, T. Keith, R. Kobayashi, J. Normand, 
 K. Raghavachari, A. Rendell, J. C. Burant, S. S. Iyengar, J. Tomasi, 
 M. Cossi, N. Rega, J. M. Millam, M. Klene, J. E. Knox, J. B. Cross, 
 V. Bakken, C. Adamo, J. Jaramillo, R. Gomperts, R. E. Stratmann, 
 O. Yazyev, A. J. Austin, R. Cammi, C. Pomelli, J. W. Ochterski, 
 R. L. Martin, K. Morokuma, V. G. Zakrzewski, G. A. Voth, 
 P. Salvador, J. J. Dannenberg, S. Dapprich, A. D. Daniels, 
 O. Farkas, J. B. Foresman, J. V. Ortiz, J. Cioslowski, 
 and D. J. Fox, Gaussian, Inc., Wallingford CT, 2013.
 
 ******************************************
 Gaussian 09:  ES64L-G09RevE.01 30-Nov-2015
                19-Feb-2019 
 ******************************************
 %chk=34TFM_EtO.M062X_6-31pGd_opt_water.chk
 %mem=196608000
 %nproc=8
 Will use up to    8 processors via shared memory.
 ----------------------------------------------------------------------
 # M062X/Gen 6D SCF=Tight INT(grid=ultrafine) OPT IOP(2/17=4) SCRF=(SMD
 ,Solvent=h2o) maxdisk=3221225472
 ----------------------------------------------------------------------
 1/14=-1,18=20,19=15,26=4,38=1/1,3;
 2/9=110,12=2,17=4,18=5,40=1/2;
 3/5=7,8=2,11=2,16=1,25=1,30=1,70=32201,71=1,72=1,74=-55,75=-5/1,2,3;
 4//1;
 5/5=2,32=2,38=5,53=1/2;
 6/7=2,8=2,9=2,10=2,28=1/1;
 7//1,2,3,16;
 1/14=-1,18=20,19=15,26=4/3(2);
 2/9=110,17=4/2;
 99//99;
 2/9=110,17=4/2;
 3/5=7,6=1,8=2,11=2,16=1,25=1,30=1,70=32205,71=1,72=1,74=-55,75=-5,82=7/1,2,3;
 4/5=5,16=3,69=1/1;
 5/5=2,32=2,38=5,53=1/2;
 7//1,2,3,16;
 1/14=-1,18=20,19=15,26=4/3(-5);
 2/9=110,17=4/2;
 6/7=2,8=2,9=2,10=2,19=2,28=1/1;
 99/9=1/99;
 ---------------------------------
 34TFM_EtO.M062X_6-31pGd_opt_water
 ---------------------------------
 Symbolic Z-matrix:
 Charge = -1 Multiplicity = 1
 C                    -2.1131    2.45806  -0.31643 
 C                    -0.79881   1.69739  -0.16728 
 C                     0.40247   2.64631  -0.23662 
 N                     1.65407   1.92028  -0.09404 
 C                     2.85831   2.56218  -0.12577 
 O                     2.87725   3.77246  -0.2791 
 N                     4.01913   1.84176   0.01098 
 C                     5.37672   2.33872   0.00325 
 C                     5.73463   3.70208  -0.12192 
 C                     6.41575   1.40691   0.13015 
 C                     7.74822   1.80136   0.13231 
 C                     8.11651   3.14931   0.00856 
 C                     7.08531   4.12921  -0.12198 
 H                    -2.96337   1.74597  -0.26253 
 H                    -2.14807   2.9803   -1.29629 
 H                    -2.22197   3.20437   0.49921 
 H                    -0.72432   0.94463  -0.98212 
 H                    -0.79839   1.16898   0.81092 
 H                     0.32078   3.39805   0.57935 
 H                     0.39462   3.17288  -1.21654 
 H                     1.62056   0.78876   0.04699 
 H                     3.89524   0.70983   0.14535 
 H                     4.9854    4.45835  -0.21893 
 H                     6.20591   0.35149   0.22886 
 H                     8.50855   1.03523   0.23304 
 C                     7.37749   5.61677  -0.26087 
 C                     9.61598   3.4182    0.02894 
 F                     9.96856   4.74432  -0.09271 
 F                     10.21116   2.72939  -1.0131 
 F                     10.14066   2.95318   1.22185 
 F                     6.22448   6.37559  -0.37287 
 F                     8.12984   5.84274  -1.39953 
 F                     8.05858   6.06722   0.85576 
 O                     1.60466  -1.25567   0.38955 
 O                     3.82986  -1.33842   0.49019 
 C                     2.7611   -1.93197   0.54831 
 C                     2.73373  -3.41018   0.80291 
 C                     3.46454  -4.17118  -0.29885 
 H                     1.68006  -3.76144   0.84419 
 H                     3.21493  -3.62121   1.78186 
 H                     2.98277  -3.98123  -1.28187 
 H                     3.42527  -5.26048  -0.08713 
 H                     4.52951  -3.85812  -0.34732 
 
 Add virtual bond connecting atoms O34        and H21        Dist= 3.92D+00.
 Add virtual bond connecting atoms O35        and H22        Dist= 3.93D+00.

 GradGradGradGradGradGradGradGradGradGradGradGradGradGradGradGradGradGrad
 Berny optimization.
 Initialization pass.
                           ----------------------------
                           !    Initial Parameters    !
                           ! (Angstroms and Degrees)  !
 --------------------------                            --------------------------
 ! Name  Definition              Value          Derivative Info.                !
 --------------------------------------------------------------------------------
 ! R1    R(1,2)                  1.5259         estimate D2E/DX2                !
 ! R2    R(1,14)                 1.1104         estimate D2E/DX2                !
 ! R3    R(1,15)                 1.1109         estimate D2E/DX2                !
 ! R4    R(1,16)                 1.1109         estimate D2E/DX2                !
 ! R5    R(2,3)                  1.5324         estimate D2E/DX2                !
 ! R6    R(2,17)                 1.1118         estimate D2E/DX2                !
 ! R7    R(2,18)                 1.1118         estimate D2E/DX2                !
 ! R8    R(3,4)                  1.4539         estimate D2E/DX2                !
 ! R9    R(3,19)                 1.1125         estimate D2E/DX2                !
 ! R10   R(3,20)                 1.1125         estimate D2E/DX2                !
 ! R11   R(4,5)                  1.365          estimate D2E/DX2                !
 ! R12   R(4,21)                 1.1408         estimate D2E/DX2                !
 ! R13   R(5,6)                  1.2201         estimate D2E/DX2                !
 ! R14   R(5,7)                  1.373          estimate D2E/DX2                !
 ! R15   R(7,8)                  1.4457         estimate D2E/DX2                !
 ! R16   R(7,22)                 1.1466         estimate D2E/DX2                !
 ! R17   R(8,9)                  1.4151         estimate D2E/DX2                !
 ! R18   R(8,10)                 1.4014         estimate D2E/DX2                !
 ! R19   R(9,13)                 1.4166         estimate D2E/DX2                !
 ! R20   R(9,23)                 1.069          estimate D2E/DX2                !
 ! R21   R(10,11)                1.3896         estimate D2E/DX2                !
 ! R22   R(10,24)                1.0806         estimate D2E/DX2                !
 ! R23   R(11,12)                1.4028         estimate D2E/DX2                !
 ! R24   R(11,25)                1.0841         estimate D2E/DX2                !
 ! R25   R(12,13)                1.4285         estimate D2E/DX2                !
 ! R26   R(12,27)                1.5235         estimate D2E/DX2                !
 ! R27   R(13,26)                1.5223         estimate D2E/DX2                !
 ! R28   R(21,34)                2.073          estimate D2E/DX2                !
 ! R29   R(22,35)                2.0781         estimate D2E/DX2                !
 ! R30   R(26,31)                1.3848         estimate D2E/DX2                !
 ! R31   R(26,32)                1.3833         estimate D2E/DX2                !
 ! R32   R(26,33)                1.3833         estimate D2E/DX2                !
 ! R33   R(27,28)                1.3776         estimate D2E/DX2                !
 ! R34   R(27,29)                1.3837         estimate D2E/DX2                !
 ! R35   R(27,30)                1.3837         estimate D2E/DX2                !
 ! R36   R(34,36)                1.3491         estimate D2E/DX2                !
 ! R37   R(35,36)                1.2239         estimate D2E/DX2                !
 ! R38   R(36,37)                1.5002         estimate D2E/DX2                !
 ! R39   R(37,38)                1.5255         estimate D2E/DX2                !
 ! R40   R(37,39)                1.1114         estimate D2E/DX2                !
 ! R41   R(37,40)                1.111          estimate D2E/DX2                !
 ! R42   R(38,41)                1.1111         estimate D2E/DX2                !
 ! R43   R(38,42)                1.1104         estimate D2E/DX2                !
 ! R44   R(38,43)                1.1111         estimate D2E/DX2                !
 ! A1    A(2,1,14)             109.5803         estimate D2E/DX2                !
 ! A2    A(2,1,15)             110.3463         estimate D2E/DX2                !
 ! A3    A(2,1,16)             110.3378         estimate D2E/DX2                !
 ! A4    A(14,1,15)            108.6747         estimate D2E/DX2                !
 ! A5    A(14,1,16)            108.6719         estimate D2E/DX2                !
 ! A6    A(15,1,16)            109.1902         estimate D2E/DX2                !
 ! A7    A(1,2,3)              111.229          estimate D2E/DX2                !
 ! A8    A(1,2,17)             108.8803         estimate D2E/DX2                !
 ! A9    A(1,2,18)             108.8604         estimate D2E/DX2                !
 ! A10   A(3,2,17)             109.4853         estimate D2E/DX2                !
 ! A11   A(3,2,18)             109.5007         estimate D2E/DX2                !
 ! A12   A(17,2,18)            108.845          estimate D2E/DX2                !
 ! A13   A(2,3,4)              111.1716         estimate D2E/DX2                !
 ! A14   A(2,3,19)             109.1283         estimate D2E/DX2                !
 ! A15   A(2,3,20)             109.1127         estimate D2E/DX2                !
 ! A16   A(4,3,19)             109.1908         estimate D2E/DX2                !
 ! A17   A(4,3,20)             109.1969         estimate D2E/DX2                !
 ! A18   A(19,3,20)            109.0089         estimate D2E/DX2                !
 ! A19   A(3,4,5)              121.4896         estimate D2E/DX2                !
 ! A20   A(3,4,21)             118.8253         estimate D2E/DX2                !
 ! A21   A(5,4,21)             119.6851         estimate D2E/DX2                !
 ! A22   A(4,5,6)              118.8871         estimate D2E/DX2                !
 ! A23   A(4,5,7)              119.7896         estimate D2E/DX2                !
 ! A24   A(6,5,7)              121.323          estimate D2E/DX2                !
 ! A25   A(5,7,8)              127.808          estimate D2E/DX2                !
 ! A26   A(5,7,22)             115.9959         estimate D2E/DX2                !
 ! A27   A(8,7,22)             116.1961         estimate D2E/DX2                !
 ! A28   A(7,8,9)              124.6914         estimate D2E/DX2                !
 ! A29   A(7,8,10)             117.8514         estimate D2E/DX2                !
 ! A30   A(9,8,10)             117.4571         estimate D2E/DX2                !
 ! A31   A(8,9,13)             122.1167         estimate D2E/DX2                !
 ! A32   A(8,9,23)             120.8213         estimate D2E/DX2                !
 ! A33   A(13,9,23)            117.0618         estimate D2E/DX2                !
 ! A34   A(8,10,11)            121.4883         estimate D2E/DX2                !
 ! A35   A(8,10,24)            120.9115         estimate D2E/DX2                !
 ! A36   A(11,10,24)           117.6002         estimate D2E/DX2                !
 ! A37   A(10,11,12)           121.6243         estimate D2E/DX2                !
 ! A38   A(10,11,25)           118.168          estimate D2E/DX2                !
 ! A39   A(12,11,25)           120.2077         estimate D2E/DX2                !
 ! A40   A(11,12,13)           118.5336         estimate D2E/DX2                !
 ! A41   A(11,12,27)           115.2645         estimate D2E/DX2                !
 ! A42   A(13,12,27)           126.2019         estimate D2E/DX2                !
 ! A43   A(9,13,12)            118.7799         estimate D2E/DX2                !
 ! A44   A(9,13,26)            118.5307         estimate D2E/DX2                !
 ! A45   A(12,13,26)           122.6893         estimate D2E/DX2                !
 ! A46   A(13,26,31)           112.5203         estimate D2E/DX2                !
 ! A47   A(13,26,32)           109.8221         estimate D2E/DX2                !
 ! A48   A(13,26,33)           109.8182         estimate D2E/DX2                !
 ! A49   A(31,26,32)           107.2619         estimate D2E/DX2                !
 ! A50   A(31,26,33)           107.2646         estimate D2E/DX2                !
 ! A51   A(32,26,33)           110.0877         estimate D2E/DX2                !
 ! A52   A(12,27,28)           114.8738         estimate D2E/DX2                !
 ! A53   A(12,27,29)           108.991          estimate D2E/DX2                !
 ! A54   A(12,27,30)           108.9912         estimate D2E/DX2                !
 ! A55   A(28,27,29)           107.6152         estimate D2E/DX2                !
 ! A56   A(28,27,30)           107.6141         estimate D2E/DX2                !
 ! A57   A(29,27,30)           108.5938         estimate D2E/DX2                !
 ! A58   A(21,34,36)           120.4828         estimate D2E/DX2                !
 ! A59   A(22,35,36)           120.8874         estimate D2E/DX2                !
 ! A60   A(34,36,35)           119.9904         estimate D2E/DX2                !
 ! A61   A(34,36,37)           119.887          estimate D2E/DX2                !
 ! A62   A(35,36,37)           120.1218         estimate D2E/DX2                !
 ! A63   A(36,37,38)           111.1143         estimate D2E/DX2                !
 ! A64   A(36,37,39)           109.5726         estimate D2E/DX2                !
 ! A65   A(36,37,40)           109.1947         estimate D2E/DX2                !
 ! A66   A(38,37,39)           108.8646         estimate D2E/DX2                !
 ! A67   A(38,37,40)           109.5196         estimate D2E/DX2                !
 ! A68   A(39,37,40)           108.5322         estimate D2E/DX2                !
 ! A69   A(37,38,41)           110.2418         estimate D2E/DX2                !
 ! A70   A(37,38,42)           109.5564         estimate D2E/DX2                !
 ! A71   A(37,38,43)           110.4955         estimate D2E/DX2                !
 ! A72   A(41,38,42)           108.7279         estimate D2E/DX2                !
 ! A73   A(41,38,43)           109.1984         estimate D2E/DX2                !
 ! A74   A(42,38,43)           108.5799         estimate D2E/DX2                !
 ! A75   L(4,21,34,2,-1)       181.3228         estimate D2E/DX2                !
 ! A76   L(7,22,35,1,-1)       184.4922         estimate D2E/DX2                !
 ! A77   L(4,21,34,2,-2)       182.5155         estimate D2E/DX2                !
 ! A78   L(7,22,35,1,-2)       182.6937         estimate D2E/DX2                !
 ! D1    D(14,1,2,3)           179.9871         estimate D2E/DX2                !
 ! D2    D(14,1,2,17)           59.2536         estimate D2E/DX2                !
 ! D3    D(14,1,2,18)          -59.2733         estimate D2E/DX2                !
 ! D4    D(15,1,2,3)            60.3593         estimate D2E/DX2                !
 ! D5    D(15,1,2,17)          -60.3742         estimate D2E/DX2                !
 ! D6    D(15,1,2,18)         -178.9011         estimate D2E/DX2                !
 ! D7    D(16,1,2,3)           -60.3938         estimate D2E/DX2                !
 ! D8    D(16,1,2,17)          178.8727         estimate D2E/DX2                !
 ! D9    D(16,1,2,18)           60.3459         estimate D2E/DX2                !
 ! D10   D(1,2,3,4)            179.9858         estimate D2E/DX2                !
 ! D11   D(1,2,3,19)            59.4924         estimate D2E/DX2                !
 ! D12   D(1,2,3,20)           -59.5233         estimate D2E/DX2                !
 ! D13   D(17,2,3,4)           -59.6372         estimate D2E/DX2                !
 ! D14   D(17,2,3,19)          179.8694         estimate D2E/DX2                !
 ! D15   D(17,2,3,20)           60.8536         estimate D2E/DX2                !
 ! D16   D(18,2,3,4)            59.6235         estimate D2E/DX2                !
 ! D17   D(18,2,3,19)          -60.8699         estimate D2E/DX2                !
 ! D18   D(18,2,3,20)         -179.8856         estimate D2E/DX2                !
 ! D19   D(2,3,4,5)            179.9523         estimate D2E/DX2                !
 ! D20   D(2,3,4,21)            -0.037          estimate D2E/DX2                !
 ! D21   D(19,3,4,5)           -59.5912         estimate D2E/DX2                !
 ! D22   D(19,3,4,21)          120.4195         estimate D2E/DX2                !
 ! D23   D(20,3,4,5)            59.5112         estimate D2E/DX2                !
 ! D24   D(20,3,4,21)         -120.4781         estimate D2E/DX2                !
 ! D25   D(3,4,5,6)             -0.0847         estimate D2E/DX2                !
 ! D26   D(3,4,5,7)           -179.9324         estimate D2E/DX2                !
 ! D27   D(21,4,5,6)           179.9046         estimate D2E/DX2                !
 ! D28   D(21,4,5,7)             0.0568         estimate D2E/DX2                !
 ! D29   D(3,4,34,36)         -178.7308         estimate D2E/DX2                !
 ! D30   D(5,4,34,36)           -0.4221         estimate D2E/DX2                !
 ! D31   D(4,5,7,8)            179.9859         estimate D2E/DX2                !
 ! D32   D(4,5,7,22)             0.1148         estimate D2E/DX2                !
 ! D33   D(6,5,7,8)              0.1419         estimate D2E/DX2                !
 ! D34   D(6,5,7,22)          -179.7292         estimate D2E/DX2                !
 ! D35   D(5,7,8,9)              1.5194         estimate D2E/DX2                !
 ! D36   D(5,7,8,10)          -178.5593         estimate D2E/DX2                !
 ! D37   D(22,7,8,9)          -178.6098         estimate D2E/DX2                !
 ! D38   D(22,7,8,10)            1.3116         estimate D2E/DX2                !
 ! D39   D(5,7,35,36)            0.3903         estimate D2E/DX2                !
 ! D40   D(8,7,35,36)          178.8528         estimate D2E/DX2                !
 ! D41   D(7,8,9,13)           179.957          estimate D2E/DX2                !
 ! D42   D(7,8,9,23)             0.105          estimate D2E/DX2                !
 ! D43   D(10,8,9,13)            0.0353         estimate D2E/DX2                !
 ! D44   D(10,8,9,23)         -179.8167         estimate D2E/DX2                !
 ! D45   D(7,8,10,11)         -179.9855         estimate D2E/DX2                !
 ! D46   D(7,8,10,24)            0.0946         estimate D2E/DX2                !
 ! D47   D(9,8,10,11)           -0.0583         estimate D2E/DX2                !
 ! D48   D(9,8,10,24)         -179.9783         estimate D2E/DX2                !
 ! D49   D(8,9,13,12)            0.0071         estimate D2E/DX2                !
 ! D50   D(8,9,13,26)         -179.9663         estimate D2E/DX2                !
 ! D51   D(23,9,13,12)         179.8644         estimate D2E/DX2                !
 ! D52   D(23,9,13,26)          -0.1091         estimate D2E/DX2                !
 ! D53   D(8,10,11,12)           0.0392         estimate D2E/DX2                !
 ! D54   D(8,10,11,25)        -179.9616         estimate D2E/DX2                !
 ! D55   D(24,10,11,12)        179.9617         estimate D2E/DX2                !
 ! D56   D(24,10,11,25)         -0.0391         estimate D2E/DX2                !
 ! D57   D(10,11,12,13)          0.0054         estimate D2E/DX2                !
 ! D58   D(10,11,12,27)        179.9841         estimate D2E/DX2                !
 ! D59   D(25,11,12,13)       -179.9938         estimate D2E/DX2                !
 ! D60   D(25,11,12,27)         -0.0152         estimate D2E/DX2                !
 ! D61   D(11,12,13,9)          -0.0277         estimate D2E/DX2                !
 ! D62   D(11,12,13,26)        179.9446         estimate D2E/DX2                !
 ! D63   D(27,12,13,9)         179.9963         estimate D2E/DX2                !
 ! D64   D(27,12,13,26)         -0.0315         estimate D2E/DX2                !
 ! D65   D(11,12,27,28)       -179.9816         estimate D2E/DX2                !
 ! D66   D(11,12,27,29)         59.1995         estimate D2E/DX2                !
 ! D67   D(11,12,27,30)        -59.1641         estimate D2E/DX2                !
 ! D68   D(13,12,27,28)         -0.0049         estimate D2E/DX2                !
 ! D69   D(13,12,27,29)       -120.8237         estimate D2E/DX2                !
 ! D70   D(13,12,27,30)        120.8127         estimate D2E/DX2                !
 ! D71   D(9,13,26,31)          -0.0099         estimate D2E/DX2                !
 ! D72   D(9,13,26,32)        -119.4112         estimate D2E/DX2                !
 ! D73   D(9,13,26,33)         119.3923         estimate D2E/DX2                !
 ! D74   D(12,13,26,31)       -179.9822         estimate D2E/DX2                !
 ! D75   D(12,13,26,32)         60.6165         estimate D2E/DX2                !
 ! D76   D(12,13,26,33)        -60.58           estimate D2E/DX2                !
 ! D77   D(21,34,36,35)         -0.0155         estimate D2E/DX2                !
 ! D78   D(21,34,36,37)        179.6729         estimate D2E/DX2                !
 ! D79   D(22,35,36,34)         -0.0974         estimate D2E/DX2                !
 ! D80   D(22,35,36,37)       -179.785          estimate D2E/DX2                !
 ! D81   D(34,36,37,38)        119.3365         estimate D2E/DX2                !
 ! D82   D(34,36,37,39)         -1.005          estimate D2E/DX2                !
 ! D83   D(34,36,37,40)       -119.7534         estimate D2E/DX2                !
 ! D84   D(35,36,37,38)        -60.9756         estimate D2E/DX2                !
 ! D85   D(35,36,37,39)        178.6829         estimate D2E/DX2                !
 ! D86   D(35,36,37,40)         59.9346         estimate D2E/DX2                !
 ! D87   D(36,37,38,41)        -60.1741         estimate D2E/DX2                !
 ! D88   D(36,37,38,42)       -179.7879         estimate D2E/DX2                !
 ! D89   D(36,37,38,43)         60.6237         estimate D2E/DX2                !
 ! D90   D(39,37,38,41)         60.5855         estimate D2E/DX2                !
 ! D91   D(39,37,38,42)        -59.0283         estimate D2E/DX2                !
 ! D92   D(39,37,38,43)       -178.6167         estimate D2E/DX2                !
 ! D93   D(40,37,38,41)        179.1071         estimate D2E/DX2                !
 ! D94   D(40,37,38,42)         59.4933         estimate D2E/DX2                !
 ! D95   D(40,37,38,43)        -60.0951         estimate D2E/DX2                !
 --------------------------------------------------------------------------------
 Trust Radius=3.00D-01 FncErr=1.00D-07 GrdErr=1.00D-06
 Number of steps in this run=    227 maximum allowed number of steps=    258.
 GradGradGradGradGradGradGradGradGradGradGradGradGradGradGradGradGradGrad

                          Input orientation:                          
 ---------------------------------------------------------------------
 Center     Atomic      Atomic             Coordinates (Angstroms)
 Number     Number       Type             X           Y           Z
 ---------------------------------------------------------------------
      1          6           0       -2.113100    2.458060   -0.316430
      2          6           0       -0.798810    1.697390   -0.167280
      3          6           0        0.402470    2.646310   -0.236620
      4          7           0        1.654070    1.920280   -0.094040
      5          6           0        2.858310    2.562180   -0.125770
      6          8           0        2.877250    3.772460   -0.279100
      7          7           0        4.019130    1.841760    0.010980
      8          6           0        5.376720    2.338720    0.003250
      9          6           0        5.734630    3.702080   -0.121920
     10          6           0        6.415750    1.406910    0.130150
     11          6           0        7.748220    1.801360    0.132310
     12          6           0        8.116510    3.149310    0.008560
     13          6           0        7.085310    4.129210   -0.121980
     14          1           0       -2.963370    1.745970   -0.262530
     15          1           0       -2.148070    2.980300   -1.296290
     16          1           0       -2.221970    3.204370    0.499210
     17          1           0       -0.724320    0.944630   -0.982120
     18          1           0       -0.798390    1.168980    0.810920
     19          1           0        0.320780    3.398050    0.579350
     20          1           0        0.394620    3.172880   -1.216540
     21          1           0        1.620560    0.788760    0.046990
     22          1           0        3.895240    0.709830    0.145350
     23          1           0        4.985400    4.458350   -0.218930
     24          1           0        6.205910    0.351490    0.228860
     25          1           0        8.508550    1.035230    0.233040
     26          6           0        7.377490    5.616770   -0.260870
     27          6           0        9.615980    3.418200    0.028940
     28          9           0        9.968560    4.744320   -0.092710
     29          9           0       10.211160    2.729390   -1.013100
     30          9           0       10.140660    2.953180    1.221850
     31          9           0        6.224480    6.375590   -0.372870
     32          9           0        8.129840    5.842740   -1.399530
     33          9           0        8.058580    6.067220    0.855760
     34          8           0        1.604660   -1.255670    0.389550
     35          8           0        3.829860   -1.338420    0.490190
     36          6           0        2.761100   -1.931970    0.548310
     37          6           0        2.733730   -3.410180    0.802910
     38          6           0        3.464540   -4.171180   -0.298850
     39          1           0        1.680060   -3.761440    0.844190
     40          1           0        3.214930   -3.621210    1.781860
     41          1           0        2.982770   -3.981230   -1.281870
     42          1           0        3.425270   -5.260480   -0.087130
     43          1           0        4.529510   -3.858120   -0.347320
 ---------------------------------------------------------------------
                    Distance matrix (angstroms):
                    1          2          3          4          5
     1  C    0.000000
     2  C    1.525851   0.000000
     3  C    2.523866   1.532426   0.000000
     4  N    3.811854   2.464075   1.453943   0.000000
     5  C    4.976154   3.758206   2.459780   1.365004   0.000000
     6  O    5.160682   4.222776   2.719293   2.227327   1.220101
     7  N    6.171812   4.823398   3.713332   2.368692   1.373029
     8  C    7.497589   6.211083   4.989520   3.747356   2.531594
     9  C    7.948100   6.834228   5.436887   4.452702   3.093962
    10  C    8.604977   7.226529   6.150623   4.794518   3.749070
    11  C    9.893344   8.552911   7.403384   6.099511   4.955469
    12  C   10.258088   9.034485   7.734309   6.579071   5.292583
    13  C    9.351005   8.250767   6.846348   5.863320   4.508118
    14  H    1.110377   2.167199   3.484274   4.623800   5.880209
    15  H    1.110893   2.177389   2.782032   4.126175   5.158370
    16  H    1.110900   2.177288   2.782187   4.126078   5.158707
    17  H    2.159241   1.111828   2.172819   2.719801   4.023064
    18  H    2.158960   1.111797   2.172995   2.719920   4.023661
    19  H    2.758582   2.168682   1.112472   2.101171   2.763138
    20  H    2.758591   2.168477   1.112466   2.101244   2.762698
    21  H    4.105953   2.593236   2.239346   1.140767   2.169537
    22  H    6.274528   4.806986   4.011895   2.558386   2.140077
    23  H    7.375593   6.409575   4.928189   4.189887   2.851079
    24  H    8.598890   7.143842   6.258018   4.825413   4.027324
    25  H   10.730602   9.339468   8.277964   6.919118   5.863918
    26  C   10.002591   9.067645   7.581235   6.815380   5.456350
    27  C   11.773380  10.557819   9.249600   8.102524   6.813429
    28  F   12.298111  11.190424   9.794510   8.780999   7.437640
    29  F   12.346917  11.090531   9.839727   8.644254   7.408085
    30  F   12.359858  11.098590   9.851581   8.649894   7.416305
    31  F    9.212245   8.441234   6.915338   6.388754   5.092569
    32  F   10.841909   9.920845   8.442853   7.682812   6.338262
    33  F   10.856479   9.929521   8.456473   7.688757   6.347560
    34  O    5.302069   3.848024   4.130714   3.212936   4.051317
    35  O    7.098075   5.574316   5.305971   3.961630   4.066694
    36  C    6.616492   5.133934   5.209597   4.059305   4.545461
    37  C    7.692914   6.285490   6.572402   5.512167   6.045416
    38  C    8.663556   7.254900   7.473842   6.358116   6.762811
    39  H    7.376807   6.080024   6.622662   5.758723   6.505172
    40  H    8.351542   6.942389   7.160028   6.055031   6.480783
    41  H    8.268278   6.912987   7.188517   6.164755   6.645921
    42  H    9.502735   8.140100   8.466227   7.395979   7.843274
    43  H    9.166207   7.699812   7.704046   6.459273   6.637940
                    6          7          8          9         10
     6  O    0.000000
     7  N    2.261778   0.000000
     8  C    2.895286   1.445711   0.000000
     9  C    2.862565   2.534047   1.415103   0.000000
    10  C    4.276014   2.438664   1.401412   2.407337   0.000000
    11  C    5.270753   3.731282   2.435041   2.780632   1.389630
    12  C    5.284024   4.300955   2.857190   2.448659   2.437894
    13  C    4.226077   3.827736   2.478067   1.416607   2.814746
    14  H    6.182215   6.988511   8.365351   8.916352   9.393458
    15  H    5.188067   6.406214   7.663086   8.002317   8.823225
    16  H    5.189464   6.406747   7.663903   7.996312   8.830474
    17  H    4.632728   4.928631   6.335387   7.075416   7.240956
    18  H    4.634283   4.929608   6.336608   7.068744   7.250095
    19  H    2.722620   4.052515   5.197750   5.467539   6.427681
    20  H    2.720614   4.051637   5.196637   5.476673   6.417650
    21  H    3.253931   2.619779   4.063622   5.043960   4.835584
    22  H    3.255175   1.146590   2.206413   3.522549   2.615172
    23  H    2.217738   2.798764   2.166870   1.068972   3.388074
    24  H    4.800108   2.655256   2.165073   3.401706   1.080596
    25  H    6.282217   4.566694   3.400037   3.864287   2.128038
    26  C    4.863535   5.059959   3.849474   2.526724   4.335985
    27  C    6.755063   5.814655   4.374616   3.894640   3.781138
    28  F    7.160023   6.620523   5.184700   4.360422   4.879593
    29  F    7.443990   6.338601   4.955542   4.666867   4.178649
    30  F    7.461983   6.338343   4.955570   4.666869   4.178243
    31  F    4.241347   5.056335   4.142038   2.729576   4.997739
    32  F    5.755964   5.907226   4.671790   3.457129   4.995459
    33  F    5.779274   5.906380   4.671280   3.456948   4.994386
    34  O    5.229596   3.945511   5.224682   6.472831   5.504835
    35  O    5.255508   3.221647   4.018861   5.423050   3.788574
    36  C    5.765294   4.014026   5.037594   6.405748   4.967841
    37  C    7.265099   5.464639   6.377672   7.774635   6.100347
    38  C    7.965345   6.046405   6.791649   8.195904   6.325249
    39  H    7.710687   6.128731   7.182230   8.548511   7.046166
    40  H    7.682964   5.798862   6.584645   7.975202   6.185094
    41  H    7.818976   6.054149   6.879266   8.243268   6.543027
    42  H    9.051585   7.127700   7.846284   9.255368   7.310559
    43  H    7.807712   5.733890   6.264303   7.658965   5.613058
                   11         12         13         14         15
    11  C    0.000000
    12  C    1.402826   0.000000
    13  C    2.433721   1.428502   0.000000
    14  H   10.719008  11.171687  10.328386   0.000000
    15  H   10.068136  10.348565   9.378396   1.804701   0.000000
    16  H   10.075105  10.350263   9.373722   1.804675   1.810936
    17  H    8.588357   9.165279   8.477719   2.484613   2.503941
    18  H    8.596799   9.167384   8.472661   2.484422   3.089150
    19  H    7.610265   7.820555   6.839980   3.771442   3.128540
    20  H    7.601046   7.818504   6.846748   3.771247   2.551219
    21  H    6.211349   6.911660   6.407078   4.693023   4.561778
    22  H    4.004630   4.877386   4.684034   6.948416   6.614753
    23  H    3.849174   3.401351   2.127758   8.398920   7.364220
    24  H    2.119001   3.395103   3.894560   9.287720   8.889640
    25  H    1.084068   2.161810   3.424086  11.504594  10.940096
    26  C    3.853490   2.589807   1.522332  11.041580   9.937774
    27  C    2.472526   1.523525   2.632984  12.693359  11.846555
    28  F    3.693448   2.446304   2.948279  13.276059  12.303377
    29  F    2.870414   2.368054   3.539001  13.232487  12.365020
    30  F    2.870114   2.368063   3.538939  13.242973  12.544108
    31  F    4.847739   3.759541   2.418718  10.288933   9.081866
    32  F    4.338769   3.039319   2.378941  11.880051  10.669567
    33  F    4.337887   3.038964   2.378889  11.891474  10.878240
    34  O    6.866945   7.871035   7.700397   5.504721   5.904954
    35  O    5.033869   6.224713   6.392784   7.498535   7.588050
    36  C    6.243571   7.402105   7.475693   6.852318   7.185603
    37  C    7.263261   8.522454   8.754089   7.757448   8.311248
    38  C    7.362544   8.678992   9.057468   8.736819   9.145488
    39  H    8.262813   9.480751   9.613146   7.288198   8.042841
    40  H    7.257823   8.544590   8.869806   8.435493   9.045259
    41  H    7.625468   8.880602   9.162719   8.318441   8.648042
    42  H    8.282852   9.630237  10.077866   9.483450  10.021709
    43  H    6.528388   7.880184   8.389299   9.357150   9.604926
                   16         17         18         19         20
    16  H    0.000000
    17  H    3.089291   0.000000
    18  H    2.503309   1.808539   0.000000
    19  H    2.551375   3.090258   2.504979   0.000000
    20  H    3.129111   2.504412   3.090224   1.811457   0.000000
    21  H    4.561218   2.565507   2.565049   2.963314   2.963691
    22  H    6.615754   4.760951   4.762769   4.493512   4.491737
    23  H    7.350808   6.747562   6.732962   4.849759   4.870618
    24  H    8.901751   7.060197   7.075825   6.636198   6.619707
    25  H   10.950802   9.312932   9.325823   8.528917   8.515086
    26  C    9.927086   9.380214   9.368916   7.444854   7.459650
    27  C   11.849217  10.680009  10.683145   9.311504   9.308323
    28  F   12.301660  11.382723  11.380985   9.764413   9.766921
    29  F   12.533771  11.080210  11.268191  10.040051   9.828659
    30  F   12.386280  11.266745  11.091215   9.850927  10.048846
    31  F    9.064198   8.840381   8.822179   6.680280   6.704953
    32  F   10.850170  10.127283  10.317142   8.418663   8.185064
    33  F   10.677675  10.332379  10.121298   8.189897   8.450320
    34  O    5.877676   3.485247   3.439641   4.831302   4.863720
    35  O    7.567144   5.302883   5.273578   5.895400   5.921624
    36  C    7.156493   4.771289   4.728089   5.862187   5.896984
    37  C    8.270639   5.840275   5.783134   7.226638   7.272296
    38  C    9.347301   6.647174   6.922534   8.243040   8.012601
    39  H    7.991706   5.591381   5.518411   7.292193   7.347364
    40  H    8.820069   6.633564   6.324190   7.687142   7.943816
    41  H    9.049553   6.172233   6.723214   8.062512   7.608159
    42  H   10.192586   7.518211   7.744918   9.222375   9.032274
    43  H    9.807031   7.146475   7.416183   8.439439   8.202915
                   21         22         23         24         25
    21  H    0.000000
    22  H    2.278173   0.000000
    23  H    4.985855   3.920784   0.000000
    24  H    4.609741   2.339781   4.307721   0.000000
    25  H    6.894909   4.625603   4.933013   2.402013   0.000000
    26  C    7.519754   6.030683   2.658155   5.416236   4.744866
    27  C    8.416711   6.330536   4.752433   4.590562   2.635641
    28  F    9.238781   7.295135   4.992954   5.792918   3.999386
    29  F    8.870639   6.731380   5.561347   4.820674   2.705905
    30  F    8.868885   6.722852   5.560404   4.820485   2.705561
    31  F    7.251554   6.147743   2.287974   6.054106   5.839824
    32  F    8.366950   6.831197   3.632885   6.042101   5.091253
    33  F    8.364470   6.822002   3.631509   6.041106   5.090302
    34  O    2.072992   3.028132   6.667059   4.876503   7.275742
    35  O    3.098762   2.078104   5.953206   2.927405   5.252664
    36  C    2.992411   2.903060   6.809725   4.145233   6.475867
    37  C    4.409270   4.330817   8.247905   5.151284   7.309923
    38  C    5.302912   4.920069   8.762887   5.314897   7.268538
    39  H    4.619890   5.038616   8.923029   6.146393   8.367187
    40  H    4.999963   4.679625   8.509819   5.209618   7.218289
    41  H    5.135590   4.987545   8.738815   5.607441   7.615384
    42  H    6.314133   5.993290   9.844137   6.271046   8.098037
    43  H    5.496450   4.638016   8.329946   4.567616   6.333597
                   26         27         28         29         30
    26  C    0.000000
    27  C    3.150958   0.000000
    28  F    2.739177   1.377572   0.000000
    29  F    4.114912   1.383671   2.228433   0.000000
    30  F    4.114399   1.383679   2.228423   2.247232   0.000000
    31  F    1.384841   4.517729   4.093613   5.440431   5.439898
    32  F    1.383344   3.182378   2.509023   3.764860   4.389144
    33  F    1.383348   3.182206   2.509519   4.389459   3.763818
    34  O    8.998836   9.282044  10.304721   9.587490   9.553556
    35  O    7.843752   7.504490   8.661590   7.715436   7.666769
    36  C    8.885342   8.711110   9.845366   8.925787   8.875599
    37  C   10.206957   9.725799  10.938042   9.843992   9.773969
    38  C   10.541185   9.774781  11.037704   9.677030   9.881276
    39  H   11.028721  10.732693  11.913227  10.879341  10.807891
    40  H   10.336340   9.674682  10.913644   9.853383   9.565665
    41  H   10.605546  10.023436  11.240578   9.866827  10.275702
    42  H   11.574316  10.661044  11.954526  10.523485  10.689907
    43  H    9.894039   8.885864  10.180868   8.724660   8.963320
                   31         32         33         34         35
    31  F    0.000000
    32  F    2.228981   0.000000
    33  F    2.229024   2.267554   0.000000
    34  O    8.953220   9.806437   9.772162   0.000000
    35  O    8.123117   8.580788   8.535761   2.229011   0.000000
    36  C    9.047603   9.646946   9.599211   1.349051   1.223898
    37  C   10.456055  10.935505  10.870967   2.467302   2.364632
    38  C   10.902161  11.102032  11.281098   3.526081   2.963203
    39  H   11.175525  11.784490  11.717005   2.547796   3.258525
    40  H   10.660031  11.128519  10.871259   3.182338   2.694008
    41  H   10.890302  11.091283  11.458824   3.481596   3.292750
    42  H   11.971439  12.129999  12.274909   4.424969   3.984915
    43  H   10.373157  10.400779  10.602552   3.983776   2.745873
                   36         37         38         39         40
    36  C    0.000000
    37  C    1.500225   0.000000
    38  C    2.495309   1.525477   0.000000
    39  H    2.145496   1.111444   2.158424   0.000000
    40  H    2.140360   1.111049   2.166593   1.804083   0.000000
    41  H    2.756477   2.175874   1.111086   2.503097   3.093534
    42  H    3.453098   2.166566   1.110379   2.481982   2.494909
    43  H    2.763961   2.179106   1.111088   3.090050   2.513494
                   41         42         43
    41  H    0.000000
    42  H    1.805461   0.000000
    43  H    1.811338   1.803790   0.000000
 Stoichiometry    C15H17F6N2O3(1-)
 Framework group  C1[X(C15H17F6N2O3)]
 Deg. of freedom   123
 Full point group                 C1      NOp   1
 Largest Abelian subgroup         C1      NOp   1
 Largest concise Abelian subgroup C1      NOp   1
                         Standard orientation:                         
 ---------------------------------------------------------------------
 Center     Atomic      Atomic             Coordinates (Angstroms)
 Number     Number       Type             X           Y           Z
 ---------------------------------------------------------------------
      1          6           0       -6.033876   -3.963213    0.068741
      2          6           0       -5.315324   -2.617921    0.022981
      3          6           0       -3.793988   -2.800306    0.047536
      4          7           0       -3.110581   -1.517741    0.003555
      5          6           0       -1.748150   -1.434983    0.016593
      6          8           0       -1.095571   -2.464619    0.067946
      7          7           0       -1.139026   -0.205158   -0.024729
      8          6           0        0.277708    0.082781   -0.018870
      9          6           0        1.298630   -0.896923    0.001534
     10          6           0        0.672622    1.427289   -0.036169
     11          6           0        2.014111    1.789870   -0.032267
     12          6           0        3.035781    0.828784   -0.011674
     13          6           0        2.672779   -0.552721    0.005431
     14          1           0       -7.131943   -3.799411    0.049965
     15          1           0       -5.771628   -4.509710    0.999682
     16          1           0       -5.751498   -4.581837   -0.809705
     17          1           0       -5.630380   -2.011738    0.900160
     18          1           0       -5.610201   -2.084406   -0.906806
     19          1           0       -3.485621   -3.409290   -0.830895
     20          1           0       -3.506371   -3.336296    0.978971
     21          1           0       -3.734110   -0.563576   -0.042609
     22          1           0       -1.839632    0.701508   -0.066889
     23          1           0        1.058124   -1.938432    0.012386
     24          1           0       -0.060471    2.221026   -0.051787
     25          1           0        2.258840    2.845868   -0.045667
     26          6           0        3.702983   -1.673303    0.027104
     27          6           0        4.453455    1.386749   -0.010424
     28          9           0        5.450276    0.436139    0.009453
     29          9           0        4.619749    2.191210    1.103010
     30          9           0        4.634256    2.159403   -1.143951
     31          9           0        3.120140   -2.929445    0.040771
     32          9           0        4.483845   -1.570695    1.164366
     33          9           0        4.497678   -1.601712   -1.102934
     34          8           0       -4.824342    1.191405   -0.212100
     35          8           0       -2.974056    2.434051   -0.239788
     36          6           0       -4.196273    2.383449   -0.279189
     37          6           0       -4.998211    3.644677   -0.409093
     38          6           0       -4.753032    4.576072    0.773899
     39          1           0       -6.080426    3.395066   -0.451682
     40          1           0       -4.717420    4.160589   -1.352185
     41          1           0       -5.045265    4.077381    1.722803
     42          1           0       -5.360714    5.497589    0.653601
     43          1           0       -3.681051    4.863355    0.827199
 ---------------------------------------------------------------------
 Rotational constants (GHZ):      0.2496394      0.0854472      0.0656421
 General basis read from cards:  (6D, 7F)
 There are   528 symmetry adapted cartesian basis functions of A   symmetry.
 There are   528 symmetry adapted basis functions of A   symmetry.
   528 basis functions,   900 primitive gaussians,   528 cartesian basis functions
   100 alpha electrons      100 beta electrons
       nuclear repulsion energy      2404.5664813147 Hartrees.
 NAtoms=   43 NActive=   43 NUniq=   43 SFac= 1.00D+00 NAtFMM=   60 NAOKFM=F Big=F
 Integral buffers will be    131072 words long.
 Raffenetti 2 integral format.
 Two-electron integral symmetry is turned on.
 ------------------------------------------------------------------------------
 Polarizable Continuum Model (PCM)
 =================================
 Model                : PCM (using non-symmetric T matrix).
 Atomic radii         : SMD-Coulomb.
 Polarization charges : Total charges.
 Charge compensation  : None.
 Solution method      : On-the-fly selection.
 Cavity type          : VdW (van der Waals Surface) (Alpha=1.000).
 Cavity algorithm     : GePol (No added spheres)
                        Default sphere list used, NSphG=   43.
                        Lebedev-Laikov grids with approx.  5.0 points / Ang**2.
                        Smoothing algorithm: York/Karplus (Gamma=1.0000).
                        Polarization charges: spherical gaussians, with
                                              point-specific exponents (IZeta= 3).
                        Self-potential: point-specific (ISelfS= 7).
                        Self-field    : sphere-specific E.n sum rule (ISelfD= 2).
 1st derivatives      : Analytical E(r).r(x)/FMM algorithm (CHGder, D1EAlg=3).
                        Cavity 1st derivative terms included.
 Solvent              : Water, Eps=  78.355300 Eps(inf)=   1.777849
 ------------------------------------------------------------------------------
 ------------------------------------------------------------------------------
 Atomic radii for non-electrostatic terms: SMD-CDS.
 ------------------------------------------------------------------------------
 Nuclear repulsion after PCM non-electrostatic terms =     2404.5841705129 Hartrees.
 One-electron integrals computed using PRISM.
 NBasis=   528 RedAO= T EigKep=  1.15D-06  NBF=   528
 NBsUse=   526 1.00D-06 EigRej=  7.95D-07 NBFU=   526
 ExpMin= 4.38D-02 ExpMax= 7.00D+03 ExpMxC= 1.05D+03 IAcc=3 IRadAn=         5 AccDes= 0.00D+00
 Harris functional with IExCor= 1009 and IRadAn=       5 diagonalized for initial guess.
 HarFok:  IExCor= 1009 AccDes= 0.00D+00 IRadAn=         5 IDoV= 1 UseB2=F ITyADJ=14
 ICtDFT=  3500011 ScaDFX=  1.000000  1.000000  1.000000  1.000000
 FoFCou: FMM=F IPFlag=           0 FMFlag=      100000 FMFlg1=           0
         NFxFlg=           0 DoJE=T BraDBF=F KetDBF=T FulRan=T
         wScrn=  0.000000 ICntrl=     500 IOpCl=  0 I1Cent=   200000004 NGrid=           0
         NMat0=    1 NMatS0=      1 NMatT0=    0 NMatD0=    1 NMtDS0=    0 NMtDT0=    0
 Petite list used in FoFCou.
 Requested convergence on RMS density matrix=1.00D-08 within 128 cycles.
 Requested convergence on MAX density matrix=1.00D-06.
 Requested convergence on             energy=1.00D-06.
 No special actions if energy rises.
 Inv3:  Mode=1 IEnd=    32137587.
 Iteration    1 A*A^-1 deviation from unit magnitude is 4.22D-15 for   2096.
 Iteration    1 A*A^-1 deviation from orthogonality  is 4.71D-15 for   3268   1725.
 Iteration    1 A^-1*A deviation from unit magnitude is 4.22D-15 for   3225.
 Iteration    1 A^-1*A deviation from orthogonality  is 9.93D-12 for   2592   2535.
 Error on total polarization charges =  0.06368
 SCF Done:  E(RM062X) =  -1515.74226358     A.U. after   15 cycles
            NFock= 15  Conv=0.56D-08     -V/T= 2.0090
 SMD-CDS (non-electrostatic) energy       (kcal/mol) =      11.10
 (included in total energy above)

 **********************************************************************

            Population analysis using the SCF density.

 **********************************************************************

 Orbital symmetries:
       Occupied  (A) (A) (A) (A) (A) (A) (A) (A) (A) (A) (A) (A)
                 (A) (A) (A) (A) (A) (A) (A) (A) (A) (A) (A) (A)
                 (A) (A) (A) (A) (A) (A) (A) (A) (A) (A) (A) (A)
                 (A) (A) (A) (A) (A) (A) (A) (A) (A) (A) (A) (A)
                 (A) (A) (A) (A) (A) (A) (A) (A) (A) (A) (A) (A)
                 (A) (A) (A) (A) (A) (A) (A) (A) (A) (A) (A) (A)
                 (A) (A) (A) (A) (A) (A) (A) (A) (A) (A) (A) (A)
                 (A) (A) (A) (A) (A) (A) (A) (A) (A) (A) (A) (A)
                 (A) (A) (A) (A)
       Virtual   (A) (A) (A) (A) (A) (A) (A) (A) (A) (A) (A) (A)
                 (A) (A) (A) (A) (A) (A) (A) (A) (A) (A) (A) (A)
                 (A) (A) (A) (A) (A) (A) (A) (A) (A) (A) (A) (A)
                 (A) (A) (A) (A) (A) (A) (A) (A) (A) (A) (A) (A)
                 (A) (A) (A) (A) (A) (A) (A) (A) (A) (A) (A) (A)
                 (A) (A) (A) (A) (A) (A) (A) (A) (A) (A) (A) (A)
                 (A) (A) (A) (A) (A) (A) (A) (A) (A) (A) (A) (A)
                 (A) (A) (A) (A) (A) (A) (A) (A) (A) (A) (A) (A)
                 (A) (A) (A) (A) (A) (A) (A) (A) (A) (A) (A) (A)
                 (A) (A) (A) (A) (A) (A) (A) (A) (A) (A) (A) (A)
                 (A) (A) (A) (A) (A) (A) (A) (A) (A) (A) (A) (A)
                 (A) (A) (A) (A) (A) (A) (A) (A) (A) (A) (A) (A)
                 (A) (A) (A) (A) (A) (A) (A) (A) (A) (A) (A) (A)
                 (A) (A) (A) (A) (A) (A) (A) (A) (A) (A) (A) (A)
                 (A) (A) (A) (A) (A) (A) (A) (A) (A) (A) (A) (A)
                 (A) (A) (A) (A) (A) (A) (A) (A) (A) (A) (A) (A)
                 (A) (A) (A) (A) (A) (A) (A) (A) (A) (A) (A) (A)
                 (A) (A) (A) (A) (A) (A) (A) (A) (A) (A) (A) (A)
                 (A) (A) (A) (A) (A) (A) (A) (A) (A) (A) (A) (A)
                 (A) (A) (A) (A) (A) (A) (A) (A) (A) (A) (A) (A)
                 (A) (A) (A) (A) (A) (A) (A) (A) (A) (A) (A) (A)
                 (A) (A) (A) (A) (A) (A) (A) (A) (A) (A) (A) (A)
                 (A) (A) (A) (A) (A) (A) (A) (A) (A) (A) (A) (A)
                 (A) (A) (A) (A) (A) (A) (A) (A) (A) (A) (A) (A)
                 (A) (A) (A) (A) (A) (A) (A) (A) (A) (A) (A) (A)
                 (A) (A) (A) (A) (A) (A) (A) (A) (A) (A) (A) (A)
                 (A) (A) (A) (A) (A) (A) (A) (A) (A) (A) (A) (A)
                 (A) (A) (A) (A) (A) (A) (A) (A) (A) (A) (A) (A)
                 (A) (A) (A) (A) (A) (A) (A) (A) (A) (A) (A) (A)
                 (A) (A) (A) (A) (A) (A) (A) (A) (A) (A) (A) (A)
                 (A) (A) (A) (A) (A) (A) (A) (A) (A) (A) (A) (A)
                 (A) (A) (A) (A) (A) (A) (A) (A) (A) (A) (A) (A)
                 (A) (A) (A) (A) (A) (A) (A) (A) (A) (A) (A) (A)
                 (A) (A) (A) (A) (A) (A) (A) (A) (A) (A) (A) (A)
                 (A) (A) (A) (A) (A) (A) (A) (A) (A) (A) (A) (A)
                 (A) (A) (A) (A) (A) (A)
 The electronic state is 1-A.
 Alpha  occ. eigenvalues --  -25.31437 -25.31361 -25.31134 -25.31133 -25.31045
 Alpha  occ. eigenvalues --  -25.31043 -19.61431 -19.61311 -19.59526 -14.80803
 Alpha  occ. eigenvalues --  -14.78056 -10.83544 -10.83270 -10.68527 -10.65171
 Alpha  occ. eigenvalues --  -10.63262 -10.61392 -10.60440 -10.58190 -10.57955
 Alpha  occ. eigenvalues --  -10.57661 -10.57301 -10.54263 -10.54217 -10.53662
 Alpha  occ. eigenvalues --  -10.53280  -1.45621  -1.45100  -1.37769  -1.37511
 Alpha  occ. eigenvalues --   -1.37298  -1.37124  -1.18580  -1.16776  -1.04127
 Alpha  occ. eigenvalues --   -1.04101  -1.01163  -0.98414  -0.90055  -0.89400
 Alpha  occ. eigenvalues --   -0.86835  -0.86317  -0.82631  -0.80722  -0.76915
 Alpha  occ. eigenvalues --   -0.73499  -0.73084  -0.71968  -0.69367  -0.69052
 Alpha  occ. eigenvalues --   -0.68790  -0.68666  -0.67514  -0.66820  -0.65393
 Alpha  occ. eigenvalues --   -0.63264  -0.61244  -0.59435  -0.58238  -0.58151
 Alpha  occ. eigenvalues --   -0.57891  -0.57342  -0.57212  -0.55390  -0.55220
 Alpha  occ. eigenvalues --   -0.54906  -0.54400  -0.53831  -0.53212  -0.53082
 Alpha  occ. eigenvalues --   -0.52725  -0.52683  -0.52428  -0.51844  -0.51789
 Alpha  occ. eigenvalues --   -0.51486  -0.50331  -0.49836  -0.49486  -0.48557
 Alpha  occ. eigenvalues --   -0.47367  -0.47021  -0.45493  -0.44884  -0.44694
 Alpha  occ. eigenvalues --   -0.43561  -0.43260  -0.41379  -0.41128  -0.39742
 Alpha  occ. eigenvalues --   -0.39212  -0.39161  -0.38372  -0.35232  -0.33355
 Alpha  occ. eigenvalues --   -0.33096  -0.32941  -0.31819  -0.31715  -0.28282
 Alpha virt. eigenvalues --   -0.02035  -0.00299   0.01791   0.02734   0.03079
 Alpha virt. eigenvalues --    0.03698   0.03843   0.04065   0.04300   0.04871
 Alpha virt. eigenvalues --    0.04974   0.05531   0.05803   0.05949   0.06637
 Alpha virt. eigenvalues --    0.07056   0.07137   0.07237   0.07701   0.08017
 Alpha virt. eigenvalues --    0.08560   0.08787   0.09234   0.09550   0.09642
 Alpha virt. eigenvalues --    0.09971   0.10149   0.10566   0.11044   0.11564
 Alpha virt. eigenvalues --    0.11674   0.12085   0.12386   0.12854   0.12940
 Alpha virt. eigenvalues --    0.13067   0.13228   0.13473   0.14398   0.14537
 Alpha virt. eigenvalues --    0.14708   0.15121   0.15835   0.15847   0.16296
 Alpha virt. eigenvalues --    0.16805   0.16922   0.17206   0.17986   0.18623
 Alpha virt. eigenvalues --    0.18883   0.19234   0.19549   0.19672   0.20323
 Alpha virt. eigenvalues --    0.20677   0.21070   0.21343   0.21525   0.22163
 Alpha virt. eigenvalues --    0.22474   0.22574   0.23186   0.23484   0.23986
 Alpha virt. eigenvalues --    0.24114   0.24638   0.24816   0.24961   0.25405
 Alpha virt. eigenvalues --    0.25495   0.25643   0.25890   0.26517   0.26973
 Alpha virt. eigenvalues --    0.27397   0.27431   0.27961   0.28303   0.28922
 Alpha virt. eigenvalues --    0.28960   0.29180   0.29481   0.29536   0.29908
 Alpha virt. eigenvalues --    0.30233   0.30471   0.31235   0.31413   0.31953
 Alpha virt. eigenvalues --    0.32048   0.32257   0.32707   0.32839   0.33419
 Alpha virt. eigenvalues --    0.33849   0.33921   0.34230   0.34700   0.34926
 Alpha virt. eigenvalues --    0.35507   0.35699   0.36149   0.36303   0.36681
 Alpha virt. eigenvalues --    0.37230   0.37597   0.37738   0.37927   0.38600
 Alpha virt. eigenvalues --    0.38861   0.38968   0.39272   0.40128   0.40367
 Alpha virt. eigenvalues --    0.40450   0.40874   0.41425   0.41873   0.42334
 Alpha virt. eigenvalues --    0.42765   0.43138   0.43465   0.43777   0.44280
 Alpha virt. eigenvalues --    0.44699   0.45353   0.45793   0.46270   0.46462
 Alpha virt. eigenvalues --    0.47048   0.47779   0.49665   0.50109   0.50344
 Alpha virt. eigenvalues --    0.50551   0.50911   0.51314   0.52417   0.53458
 Alpha virt. eigenvalues --    0.54201   0.55224   0.55324   0.57908   0.58538
 Alpha virt. eigenvalues --    0.60155   0.61371   0.64084   0.66974   0.69986
 Alpha virt. eigenvalues --    0.70462   0.70748   0.70894   0.71729   0.73231
 Alpha virt. eigenvalues --    0.73810   0.74371   0.74741   0.75767   0.76601
 Alpha virt. eigenvalues --    0.77317   0.77906   0.78296   0.79591   0.79742
 Alpha virt. eigenvalues --    0.80647   0.81374   0.82022   0.82643   0.83070
 Alpha virt. eigenvalues --    0.83522   0.84979   0.85575   0.85950   0.87318
 Alpha virt. eigenvalues --    0.88190   0.88451   0.89451   0.90197   0.91321
 Alpha virt. eigenvalues --    0.91417   0.91837   0.93419   0.94635   0.95477
 Alpha virt. eigenvalues --    0.96509   0.97891   0.98895   1.00073   1.00840
 Alpha virt. eigenvalues --    1.01533   1.02515   1.04108   1.05023   1.06078
 Alpha virt. eigenvalues --    1.06504   1.06741   1.07578   1.10574   1.10830
 Alpha virt. eigenvalues --    1.12027   1.12966   1.14220   1.15256   1.15413
 Alpha virt. eigenvalues --    1.16210   1.17459   1.18445   1.18773   1.19296
 Alpha virt. eigenvalues --    1.19556   1.19643   1.21010   1.21584   1.24600
 Alpha virt. eigenvalues --    1.24853   1.25168   1.27281   1.28706   1.29655
 Alpha virt. eigenvalues --    1.30842   1.31000   1.31779   1.33143   1.33713
 Alpha virt. eigenvalues --    1.34499   1.34906   1.38583   1.39369   1.40252
 Alpha virt. eigenvalues --    1.40979   1.42089   1.42682   1.44777   1.45556
 Alpha virt. eigenvalues --    1.46280   1.46808   1.47463   1.48243   1.48927
 Alpha virt. eigenvalues --    1.50186   1.50775   1.51891   1.52012   1.54092
 Alpha virt. eigenvalues --    1.54975   1.57632   1.57947   1.58460   1.61749
 Alpha virt. eigenvalues --    1.62293   1.63237   1.63727   1.64663   1.65549
 Alpha virt. eigenvalues --    1.66684   1.66881   1.67021   1.68559   1.68698
 Alpha virt. eigenvalues --    1.72147   1.72358   1.72732   1.72787   1.73245
 Alpha virt. eigenvalues --    1.73647   1.74941   1.75476   1.75837   1.75996
 Alpha virt. eigenvalues --    1.76172   1.77495   1.78294   1.78840   1.80092
 Alpha virt. eigenvalues --    1.80523   1.81160   1.82419   1.83859   1.85187
 Alpha virt. eigenvalues --    1.85615   1.86206   1.86608   1.86985   1.87115
 Alpha virt. eigenvalues --    1.87181   1.87741   1.88385   1.88720   1.89194
 Alpha virt. eigenvalues --    1.89494   1.89596   1.90812   1.91662   1.91755
 Alpha virt. eigenvalues --    1.92563   1.92823   1.93314   1.94123   1.94533
 Alpha virt. eigenvalues --    1.95951   1.96653   1.97041   1.97399   1.97616
 Alpha virt. eigenvalues --    1.98998   2.00418   2.01714   2.02326   2.02850
 Alpha virt. eigenvalues --    2.04043   2.04201   2.04473   2.04817   2.05741
 Alpha virt. eigenvalues --    2.05927   2.06568   2.07185   2.07238   2.07345
 Alpha virt. eigenvalues --    2.08244   2.08905   2.09388   2.10517   2.12488
 Alpha virt. eigenvalues --    2.13089   2.14430   2.14789   2.15593   2.16314
 Alpha virt. eigenvalues --    2.17584   2.18351   2.19540   2.21162   2.23279
 Alpha virt. eigenvalues --    2.24612   2.24761   2.25456   2.27034   2.28371
 Alpha virt. eigenvalues --    2.28766   2.29312   2.30458   2.32291   2.33899
 Alpha virt. eigenvalues --    2.34445   2.36069   2.37457   2.37849   2.38252
 Alpha virt. eigenvalues --    2.39570   2.40193   2.40997   2.41713   2.43635
 Alpha virt. eigenvalues --    2.45106   2.47931   2.50052   2.53269   2.55242
 Alpha virt. eigenvalues --    2.55611   2.56568   2.59533   2.63042   2.63424
 Alpha virt. eigenvalues --    2.64545   2.65707   2.66931   2.68038   2.72031
 Alpha virt. eigenvalues --    2.73424   2.74041   2.74432   2.75939   2.76611
 Alpha virt. eigenvalues --    2.79429   2.80170   2.80671   2.83885   2.84450
 Alpha virt. eigenvalues --    2.85513   2.88265   2.90108   2.93963   3.00871
 Alpha virt. eigenvalues --    3.02378   3.03483   3.12175   3.12796   3.14644
 Alpha virt. eigenvalues --    3.15093   3.17537   3.17589   3.25341   3.28066
 Alpha virt. eigenvalues --    3.28570   3.29338   3.34505   3.38701   3.41722
 Alpha virt. eigenvalues --    4.20544   4.25132   4.27365   4.29285   4.29965
 Alpha virt. eigenvalues --    4.33049   4.40271   4.41274   4.43589   4.45444
 Alpha virt. eigenvalues --    4.47919   4.48886   4.54479   4.54858   4.60373
 Alpha virt. eigenvalues --    4.63085   4.64679   4.71195   4.76170   4.81741
 Alpha virt. eigenvalues --    5.41095   5.87523   6.14845   6.37639   6.88009
 Alpha virt. eigenvalues --    7.14129
          Condensed to atoms (all electrons):
               1          2          3          4          5          6
     1  C    5.809205  -0.156274   0.030167  -0.015213  -0.056925  -0.001878
     2  C   -0.156274   6.239866  -0.425108  -0.056260   0.166504   0.019353
     3  C    0.030167  -0.425108   7.213500   0.315321  -0.823017  -0.096104
     4  N   -0.015213  -0.056260   0.315321   7.628997   0.510440  -0.189525
     5  C   -0.056925   0.166504  -0.823017   0.510440   6.616058   0.586564
     6  O   -0.001878   0.019353  -0.096104  -0.189525   0.586564   8.481346
     7  N   -0.005102   0.010787  -0.201242  -0.327225   0.274223  -0.087302
     8  C   -0.009205   0.022279  -0.359888  -0.153591  -0.584396  -0.339264
     9  C    0.000885  -0.012572  -0.031014  -0.008880  -0.128670   0.383083
    10  C   -0.003037   0.009321  -0.108010  -0.078952  -0.580045  -0.103603
    11  C   -0.000339   0.000911  -0.007733  -0.034721  -0.035672  -0.012172
    12  C   -0.000648   0.001617  -0.066147  -0.034872  -0.867580  -0.011185
    13  C    0.000991  -0.003363   0.012134   0.046973   0.257340   0.083766
    14  H    0.435570  -0.108755   0.026516   0.000389  -0.002536   0.000005
    15  H    0.422962  -0.069753  -0.010539   0.000424   0.000891  -0.000037
    16  H    0.422806  -0.069153  -0.010399   0.000490   0.000283  -0.000041
    17  H   -0.022360   0.420349  -0.083386   0.007432  -0.006058  -0.000135
    18  H   -0.026119   0.423756  -0.087366   0.007146  -0.001587  -0.000102
    19  H   -0.001961  -0.044301   0.439264  -0.051214  -0.034270   0.002625
    20  H   -0.003829  -0.041879   0.439486  -0.051729  -0.034278   0.002985
    21  H   -0.001797   0.002979  -0.065305   0.187061   0.031651   0.005331
    22  H    0.000163   0.000597   0.003901   0.028447  -0.039290   0.003978
    23  H    0.000008   0.000008   0.003083   0.000070   0.013646  -0.002480
    24  H   -0.000001   0.000021  -0.000291   0.000611  -0.005881   0.000041
    25  H    0.000000  -0.000000   0.000042   0.000015   0.005810  -0.000001
    26  C    0.000218  -0.000592   0.016164   0.011926   0.214908   0.007162
    27  C   -0.000028   0.000069  -0.004304  -0.001930  -0.168578   0.000222
    28  F    0.000000   0.000000   0.000004   0.000001   0.000807   0.000003
    29  F   -0.000000  -0.000000  -0.000001   0.000000  -0.000106  -0.000000
    30  F   -0.000000  -0.000000  -0.000002   0.000000  -0.000187  -0.000000
    31  F    0.000000   0.000001   0.000155  -0.000006   0.002860  -0.000597
    32  F    0.000000  -0.000001   0.000007   0.000005   0.000905   0.000009
    33  F    0.000000  -0.000001   0.000001   0.000005   0.000481   0.000004
    34  O    0.004173   0.010451  -0.011899  -0.030780   0.000409  -0.000600
    35  O   -0.000001  -0.001297   0.006487   0.006477   0.008105  -0.000254
    36  C   -0.001786  -0.003891   0.003348  -0.005612  -0.004704  -0.000776
    37  C    0.001438  -0.000862   0.011750  -0.008170  -0.016021  -0.000423
    38  C   -0.000059  -0.000332   0.000082   0.000422  -0.000537  -0.000001
    39  H   -0.000004  -0.000054   0.000025  -0.000059  -0.000004   0.000000
    40  H   -0.000001   0.000002  -0.000025   0.000053  -0.000017   0.000000
    41  H    0.000001   0.000026  -0.000038   0.000030   0.000030   0.000000
    42  H    0.000000   0.000002   0.000000   0.000000   0.000006   0.000000
    43  H    0.000000  -0.000000   0.000006  -0.000008   0.000006   0.000000
               7          8          9         10         11         12
     1  C   -0.005102  -0.009205   0.000885  -0.003037  -0.000339  -0.000648
     2  C    0.010787   0.022279  -0.012572   0.009321   0.000911   0.001617
     3  C   -0.201242  -0.359888  -0.031014  -0.108010  -0.007733  -0.066147
     4  N   -0.327225  -0.153591  -0.008880  -0.078952  -0.034721  -0.034872
     5  C    0.274223  -0.584396  -0.128670  -0.580045  -0.035672  -0.867580
     6  O   -0.087302  -0.339264   0.383083  -0.103603  -0.012172  -0.011185
     7  N    7.777096  -0.132732   0.146004  -0.058350  -0.044137  -0.090812
     8  C   -0.132732  21.389520  -4.792193   0.387069  -0.423884   0.268236
     9  C    0.146004  -4.792193  16.323126  -4.323452  -3.041335  -4.561404
    10  C   -0.058350   0.387069  -4.323452  18.135676  -2.693237   0.355640
    11  C   -0.044137  -0.423884  -3.041335  -2.693237  15.464005  -0.164740
    12  C   -0.090812   0.268236  -4.561404   0.355640  -0.164740  21.301450
    13  C    0.196360  -5.818271   5.553448  -3.533786  -3.561156  -5.801922
    14  H    0.000007  -0.000039  -0.000003  -0.000000   0.000000  -0.000000
    15  H    0.000016   0.000012  -0.000016  -0.000000  -0.000000  -0.000000
    16  H    0.000013   0.000019  -0.000044   0.000005   0.000000  -0.000000
    17  H   -0.000014  -0.000726  -0.000336   0.000197   0.000010  -0.000004
    18  H    0.000129  -0.000813   0.000155   0.000005  -0.000001  -0.000002
    19  H   -0.000437  -0.001406  -0.001133   0.000222  -0.000002   0.000012
    20  H    0.000007  -0.003569   0.000697  -0.000063   0.000008  -0.000017
    21  H    0.030992   0.004101   0.004130   0.001394   0.000420   0.000467
    22  H    0.180041   0.039650   0.056684  -0.080661  -0.012849  -0.001355
    23  H   -0.013151  -0.006617   0.386667  -0.020816  -0.007689   0.013661
    24  H   -0.003464  -0.098525  -0.000723   0.286909   0.085972  -0.007438
    25  H    0.000756   0.048002   0.013828  -0.188656   0.372023   0.030353
    26  C    0.043115  -3.692983   0.808980   0.677633  -0.057192  -0.793360
    27  C   -0.016777   0.262682  -0.782531  -2.426052   0.339614  -2.691365
    28  F    0.000067   0.020949   0.061843   0.010225   0.074684   0.020261
    29  F   -0.000002   0.007131  -0.010533   0.104243  -0.065858   0.158331
    30  F   -0.000002   0.006039  -0.011739   0.111889  -0.069120   0.152765
    31  F   -0.000961   0.209943   0.094867   0.002182   0.016743   0.001792
    32  F    0.000215   0.042114   0.016375  -0.013187   0.001912  -0.158474
    33  F    0.000212   0.038171   0.011475  -0.013311   0.003034  -0.157637
    34  O    0.010554  -0.002188  -0.000143  -0.003143  -0.002274   0.000361
    35  O    0.002938  -0.196074  -0.015527   0.146692   0.055396  -0.003349
    36  C   -0.019340   0.070863  -0.003216  -0.035392  -0.029423  -0.002469
    37  C   -0.003764  -0.022703  -0.019572   0.022423   0.004751   0.002577
    38  C    0.000207  -0.002301  -0.000013   0.002170   0.000236  -0.000191
    39  H    0.000101  -0.000498  -0.000046   0.000400   0.000020   0.000004
    40  H   -0.000007  -0.000598  -0.000056   0.000618   0.000242   0.000005
    41  H   -0.000011  -0.000007  -0.000003   0.000027   0.000043  -0.000002
    42  H   -0.000005   0.000060   0.000003  -0.000066  -0.000013  -0.000000
    43  H    0.000118  -0.000529  -0.000050   0.000660  -0.000104   0.000006
              13         14         15         16         17         18
     1  C    0.000991   0.435570   0.422962   0.422806  -0.022360  -0.026119
     2  C   -0.003363  -0.108755  -0.069753  -0.069153   0.420349   0.423756
     3  C    0.012134   0.026516  -0.010539  -0.010399  -0.083386  -0.087366
     4  N    0.046973   0.000389   0.000424   0.000490   0.007432   0.007146
     5  C    0.257340  -0.002536   0.000891   0.000283  -0.006058  -0.001587
     6  O    0.083766   0.000005  -0.000037  -0.000041  -0.000135  -0.000102
     7  N    0.196360   0.000007   0.000016   0.000013  -0.000014   0.000129
     8  C   -5.818271  -0.000039   0.000012   0.000019  -0.000726  -0.000813
     9  C    5.553448  -0.000003  -0.000016  -0.000044  -0.000336   0.000155
    10  C   -3.533786  -0.000000  -0.000000   0.000005   0.000197   0.000005
    11  C   -3.561156   0.000000  -0.000000   0.000000   0.000010  -0.000001
    12  C   -5.801922  -0.000000  -0.000000  -0.000000  -0.000004  -0.000002
    13  C   21.207380  -0.000000   0.000001  -0.000000  -0.000008   0.000008
    14  H   -0.000000   0.481938  -0.023939  -0.023925  -0.003130  -0.003122
    15  H    0.000001  -0.023939   0.487850  -0.028555  -0.004639   0.003776
    16  H   -0.000000  -0.023925  -0.028555   0.487889   0.003776  -0.004641
    17  H   -0.000008  -0.003130  -0.004639   0.003776   0.489033  -0.031381
    18  H    0.000008  -0.003122   0.003776  -0.004641  -0.031381   0.489167
    19  H   -0.000083  -0.000054  -0.000306   0.002743   0.003795  -0.005294
    20  H   -0.000084  -0.000055   0.002773  -0.000311  -0.005297   0.003799
    21  H   -0.000841  -0.000002  -0.000000   0.000000   0.000659   0.000611
    22  H    0.012235  -0.000000  -0.000000  -0.000000   0.000001   0.000001
    23  H   -0.044836  -0.000000   0.000000   0.000000  -0.000000  -0.000000
    24  H    0.034718  -0.000000   0.000000   0.000000   0.000000   0.000000
    25  H    0.083502  -0.000000   0.000000   0.000000  -0.000000   0.000000
    26  C   -2.310649   0.000000   0.000000   0.000000   0.000000   0.000000
    27  C    0.674002  -0.000000  -0.000000  -0.000000  -0.000000  -0.000000
    28  F   -0.127864  -0.000000  -0.000000  -0.000000  -0.000000  -0.000000
    29  F   -0.088595  -0.000000  -0.000000  -0.000000  -0.000000  -0.000000
    30  F   -0.088606  -0.000000  -0.000000  -0.000000  -0.000000  -0.000000
    31  F   -0.325630   0.000000   0.000000  -0.000000  -0.000000   0.000000
    32  F    0.222690   0.000000   0.000000   0.000000   0.000000  -0.000000
    33  F    0.223684   0.000000   0.000000   0.000000  -0.000000   0.000000
    34  O   -0.000344  -0.000024  -0.000001  -0.000001  -0.000568  -0.000270
    35  O    0.005595  -0.000000   0.000000   0.000000   0.000011   0.000009
    36  C   -0.001316  -0.000022  -0.000015  -0.000005  -0.000374  -0.000577
    37  C   -0.005206   0.000017  -0.000002  -0.000002  -0.000017  -0.000279
    38  C    0.000095   0.000000   0.000000  -0.000000   0.000043  -0.000021
    39  H   -0.000005  -0.000000   0.000000  -0.000000   0.000000   0.000000
    40  H   -0.000002   0.000000   0.000000   0.000000  -0.000000  -0.000000
    41  H    0.000002   0.000000  -0.000000   0.000000  -0.000000  -0.000000
    42  H    0.000000   0.000000  -0.000000  -0.000000  -0.000000  -0.000000
    43  H   -0.000016  -0.000000   0.000000  -0.000000  -0.000000   0.000000
              19         20         21         22         23         24
     1  C   -0.001961  -0.003829  -0.001797   0.000163   0.000008  -0.000001
     2  C   -0.044301  -0.041879   0.002979   0.000597   0.000008   0.000021
     3  C    0.439264   0.439486  -0.065305   0.003901   0.003083  -0.000291
     4  N   -0.051214  -0.051729   0.187061   0.028447   0.000070   0.000611
     5  C   -0.034270  -0.034278   0.031651  -0.039290   0.013646  -0.005881
     6  O    0.002625   0.002985   0.005331   0.003978  -0.002480   0.000041
     7  N   -0.000437   0.000007   0.030992   0.180041  -0.013151  -0.003464
     8  C   -0.001406  -0.003569   0.004101   0.039650  -0.006617  -0.098525
     9  C   -0.001133   0.000697   0.004130   0.056684   0.386667  -0.000723
    10  C    0.000222  -0.000063   0.001394  -0.080661  -0.020816   0.286909
    11  C   -0.000002   0.000008   0.000420  -0.012849  -0.007689   0.085972
    12  C    0.000012  -0.000017   0.000467  -0.001355   0.013661  -0.007438
    13  C   -0.000083  -0.000084  -0.000841   0.012235  -0.044836   0.034718
    14  H   -0.000054  -0.000055  -0.000002  -0.000000  -0.000000  -0.000000
    15  H   -0.000306   0.002773  -0.000000  -0.000000   0.000000   0.000000
    16  H    0.002743  -0.000311   0.000000  -0.000000   0.000000   0.000000
    17  H    0.003795  -0.005297   0.000659   0.000001  -0.000000   0.000000
    18  H   -0.005294   0.003799   0.000611   0.000001  -0.000000   0.000000
    19  H    0.498874  -0.040534   0.001693   0.000004  -0.000000   0.000000
    20  H   -0.040534   0.498925   0.001639   0.000004  -0.000000   0.000000
    21  H    0.001693   0.001639   0.261995   0.003434   0.000000   0.000004
    22  H    0.000004   0.000004   0.003434   0.255640  -0.000089   0.004351
    23  H   -0.000000  -0.000000   0.000000  -0.000089   0.410730  -0.000100
    24  H    0.000000   0.000000   0.000004   0.004351  -0.000100   0.421180
    25  H   -0.000000  -0.000000  -0.000000  -0.000005   0.000011  -0.003399
    26  C   -0.000023  -0.000006  -0.000077   0.000867  -0.042790   0.005473
    27  C   -0.000000  -0.000000   0.000006   0.000414   0.006520   0.005619
    28  F   -0.000000  -0.000000  -0.000000   0.000000   0.000034   0.000012
    29  F    0.000000  -0.000000   0.000000   0.000000   0.000011   0.000007
    30  F   -0.000000   0.000000   0.000000   0.000000   0.000011   0.000007
    31  F   -0.000000  -0.000000   0.000000  -0.000001   0.008015  -0.000000
    32  F   -0.000000   0.000000  -0.000000  -0.000000  -0.000098   0.000000
    33  F    0.000000  -0.000000  -0.000000  -0.000000  -0.000102   0.000000
    34  O   -0.000046  -0.000006   0.042786   0.002693   0.000000   0.000017
    35  O   -0.000002   0.000000   0.000994   0.036360   0.000003  -0.001170
    36  C    0.000237   0.000086  -0.006752  -0.003109  -0.000052  -0.000509
    37  C    0.000042   0.000002   0.002775   0.004170  -0.000004   0.000137
    38  C    0.000003  -0.000004  -0.000296  -0.000282  -0.000000  -0.000040
    39  H   -0.000000  -0.000000   0.000002  -0.000006   0.000000   0.000000
    40  H    0.000000   0.000000  -0.000005  -0.000005   0.000000   0.000000
    41  H    0.000000   0.000000  -0.000002  -0.000002   0.000000   0.000000
    42  H   -0.000000  -0.000000   0.000000   0.000000   0.000000   0.000000
    43  H   -0.000000  -0.000000   0.000000  -0.000002  -0.000000   0.000001
              25         26         27         28         29         30
     1  C    0.000000   0.000218  -0.000028   0.000000  -0.000000  -0.000000
     2  C   -0.000000  -0.000592   0.000069   0.000000  -0.000000  -0.000000
     3  C    0.000042   0.016164  -0.004304   0.000004  -0.000001  -0.000002
     4  N    0.000015   0.011926  -0.001930   0.000001   0.000000   0.000000
     5  C    0.005810   0.214908  -0.168578   0.000807  -0.000106  -0.000187
     6  O   -0.000001   0.007162   0.000222   0.000003  -0.000000  -0.000000
     7  N    0.000756   0.043115  -0.016777   0.000067  -0.000002  -0.000002
     8  C    0.048002  -3.692983   0.262682   0.020949   0.007131   0.006039
     9  C    0.013828   0.808980  -0.782531   0.061843  -0.010533  -0.011739
    10  C   -0.188656   0.677633  -2.426052   0.010225   0.104243   0.111889
    11  C    0.372023  -0.057192   0.339614   0.074684  -0.065858  -0.069120
    12  C    0.030353  -0.793360  -2.691365   0.020261   0.158331   0.152765
    13  C    0.083502  -2.310649   0.674002  -0.127864  -0.088595  -0.088606
    14  H   -0.000000   0.000000  -0.000000  -0.000000  -0.000000  -0.000000
    15  H    0.000000   0.000000  -0.000000  -0.000000  -0.000000  -0.000000
    16  H    0.000000   0.000000  -0.000000  -0.000000  -0.000000  -0.000000
    17  H   -0.000000   0.000000  -0.000000  -0.000000  -0.000000  -0.000000
    18  H    0.000000   0.000000  -0.000000  -0.000000  -0.000000  -0.000000
    19  H   -0.000000  -0.000023  -0.000000  -0.000000   0.000000  -0.000000
    20  H   -0.000000  -0.000006  -0.000000  -0.000000  -0.000000   0.000000
    21  H   -0.000000  -0.000077   0.000006  -0.000000   0.000000   0.000000
    22  H   -0.000005   0.000867   0.000414   0.000000   0.000000   0.000000
    23  H    0.000011  -0.042790   0.006520   0.000034   0.000011   0.000011
    24  H   -0.003399   0.005473   0.005619   0.000012   0.000007   0.000007
    25  H    0.405578   0.003924  -0.063775   0.000540  -0.000107  -0.000069
    26  C    0.003924  12.462723  -3.238531   0.193271   0.024762   0.025150
    27  C   -0.063775  -3.238531  12.553461  -0.135688   0.000242   0.003153
    28  F    0.000540   0.193271  -0.135688   9.303766  -0.034315  -0.034376
    29  F   -0.000107   0.024762   0.000242  -0.034315   9.231004  -0.047672
    30  F   -0.000069   0.025150   0.003153  -0.034376  -0.047672   9.230851
    31  F    0.000007   0.100838   0.016095   0.000397   0.000011   0.000011
    32  F   -0.000004  -0.040793   0.067912  -0.012615  -0.000820   0.000213
    33  F   -0.000003  -0.039616   0.073096  -0.012435   0.000215  -0.000812
    34  O    0.000000  -0.000039  -0.000021  -0.000000  -0.000000  -0.000000
    35  O   -0.000015   0.000604  -0.000882  -0.000000   0.000000   0.000000
    36  C   -0.000035  -0.000788  -0.000611   0.000000   0.000002   0.000002
    37  C    0.000001  -0.000353   0.000209   0.000000   0.000000   0.000000
    38  C    0.000000   0.000014  -0.000014  -0.000000  -0.000000  -0.000000
    39  H   -0.000000  -0.000000   0.000000   0.000000  -0.000000  -0.000000
    40  H   -0.000000   0.000000   0.000000   0.000000   0.000000   0.000000
    41  H   -0.000000   0.000000   0.000000   0.000000   0.000000   0.000000
    42  H    0.000000   0.000000  -0.000000  -0.000000   0.000000  -0.000000
    43  H   -0.000000  -0.000000   0.000001   0.000000  -0.000000   0.000000
              31         32         33         34         35         36
     1  C    0.000000   0.000000   0.000000   0.004173  -0.000001  -0.001786
     2  C    0.000001  -0.000001  -0.000001   0.010451  -0.001297  -0.003891
     3  C    0.000155   0.000007   0.000001  -0.011899   0.006487   0.003348
     4  N   -0.000006   0.000005   0.000005  -0.030780   0.006477  -0.005612
     5  C    0.002860   0.000905   0.000481   0.000409   0.008105  -0.004704
     6  O   -0.000597   0.000009   0.000004  -0.000600  -0.000254  -0.000776
     7  N   -0.000961   0.000215   0.000212   0.010554   0.002938  -0.019340
     8  C    0.209943   0.042114   0.038171  -0.002188  -0.196074   0.070863
     9  C    0.094867   0.016375   0.011475  -0.000143  -0.015527  -0.003216
    10  C    0.002182  -0.013187  -0.013311  -0.003143   0.146692  -0.035392
    11  C    0.016743   0.001912   0.003034  -0.002274   0.055396  -0.029423
    12  C    0.001792  -0.158474  -0.157637   0.000361  -0.003349  -0.002469
    13  C   -0.325630   0.222690   0.223684  -0.000344   0.005595  -0.001316
    14  H    0.000000   0.000000   0.000000  -0.000024  -0.000000  -0.000022
    15  H    0.000000   0.000000   0.000000  -0.000001   0.000000  -0.000015
    16  H   -0.000000   0.000000   0.000000  -0.000001   0.000000  -0.000005
[...]
 447,-0.00000262,-0.00000051,-0.00000107,0.00000129,-0.00000254,0.00000
 030,-0.00000098,0.00000047,-0.00000019,-0.00000021,0.00000005,-0.00000
 007,-0.00000035,0.00000040,0.00000014,0.00000037,-0.00000025,0.0000009
 6,-0.00000060,0.00000052,-0.00000097,-0.00000312,0.00000321,0.00000015
 ,-0.00000355,0.00000299,-0.00000147,-0.00001836,-0.00018400,0.00002393
 ,-0.00000470,0.00017551,-0.00002556,0.00000010,-0.00000007,0.00000046,
 0.00000021,-0.00000163,0.00000126,-0.00000054,-0.00000015,0.00000070,-
 0.00000040,0.00000156,0.00000165,0.00000270,-0.00000007,0.00000158,-0.
 00000073,-0.00000059,-0.00000076,-0.00000059,-0.00000006,-0.00000022,-
 0.00000083,0.00000054,-0.00000064,0.00000005,-0.00000034,-0.00000025,-
 0.00000024,-0.00000056,-0.00000013,-0.00000019,-0.00000063,-0.00000117
 ,-0.00051970,0.00211387,-0.00049485,-0.00041408,-0.00185450,-0.0007941
 7,-0.00227978,-0.00285879,0.00577090,-0.04813105,-0.00454017,0.0341576
 7,-0.00378241,-0.00452115,0.02596073,0.00366811,0.00615551,-0.02697606
 ,0.05306698,0.00000103,0.00000191,-0.00000195,0.00000194,-0.00000307,0
 .00000683,-0.00001318,0.00000891,-0.00000440,0.00004424,0.00004799,0.0
 0001609,-0.00019731,0.00007927,-0.00003296,0.00005874,-0.00010389,0.00
 002102,-0.00002554,-0.00048166,0.00008282,0.00016377,-0.00000922,0.000
 00457,-0.00004298,-0.00002421,0.00000151,-0.00003525,0.00004144,-0.000
 00338,0.00001139,0.00000067,0.00000101,-0.00002630,-0.00000678,-0.0000
 0037,0.00001013,-0.00001297,-0.00000505,0.00000132,-0.00000024,0.00000
 023,0.00000002,0.00000003,0.00000008,0.00000055,-0.00000052,0.,-0.0000
 0005,-0.00000201,-0.00000152,-0.00000289,0.00000137,-0.00000146,0.0000
 0284,-0.00000263,-0.00000093,0.00000445,-0.00000188,0.00000146,-0.0000
 5621,0.00005464,-0.00002904,0.00004216,0.00082138,-0.00013539,0.000000
 51,0.00000203,0.00000083,0.00000496,-0.00001813,0.00000499,-0.00000309
 ,-0.00000032,0.00000070,0.00000228,0.00001923,0.00000327,0.00002989,0.
 00000493,-0.00000017,-0.00000713,-0.00000545,-0.00000314,-0.00000924,-
 0.00000299,0.00000557,-0.00000742,0.00000297,-0.00000105,0.00000089,-0
 .00000581,0.00000015,-0.00000416,-0.00000613,0.00000219,-0.00000162,-0
 .00000579,-0.00000505,-0.00086516,-0.00024616,-0.00353741,-0.00387952,
 -0.00619279,-0.00228789,-0.00114344,-0.00363686,0.03563784,-0.00400280
 ,-0.05594207,0.05144445,0.00242843,0.00280503,-0.01904039,0.00152091,0
 .00189519,-0.00993886,0.00383450,0.06131648,0.00000065,-0.00000026,0.0
 0000003,-0.00000068,0.00000283,-0.00000311,-0.00000065,-0.00000269,-0.
 00000021,-0.00002552,-0.00001892,-0.00001177,0.00008442,-0.00001589,0.
 00000406,-0.00002249,0.00002027,-0.00000360,0.00001336,0.00013611,-0.0
 0000283,-0.00004789,0.00000909,-0.00000071,0.00001472,0.00000706,-0.00
 000082,0.00000842,-0.00001290,-0.00000992,-0.00000263,-0.00000093,0.00
 000670,0.00000762,0.00000192,0.00000151,-0.00000276,0.00000476,0.00000
 096,-0.00000124,-0.00000061,-0.00000018,0.00000022,-0.00000049,0.00000
 032,-0.00000027,0.00000054,0.00000035,0.00000072,-0.00000125,0.0000004
 3,-0.00000010,-0.00000034,0.00000245,-0.00000019,-0.00000021,0.0000005
 5,-0.00000103,-0.00000091,0.00000071,0.00001819,0.00006682,0.00001520,
 -0.00003357,-0.00021666,-0.00001193,0.00000014,-0.00000042,-0.00000081
 ,0.00000002,0.00000488,-0.00000311,0.00000059,-0.00000039,-0.00000047,
 -0.00000084,-0.00000698,-0.00000243,-0.00000903,-0.00000196,-0.0000026
 5,0.00000237,0.00000221,0.00000154,0.00000268,0.00000092,-0.00000100,0
 .00000208,-0.00000066,0.00000048,-0.00000024,0.00000208,0.00000035,0.0
 0000096,0.00000200,-0.00000021,0.00000060,0.00000237,0.00000246,0.0000
 0738,-0.00053990,0.00166322,-0.00031703,0.00157125,0.00008214,0.001291
 40,-0.00107543,-0.00411840,0.03308751,0.04905848,-0.30167432,0.0010982
 5,0.00111350,-0.00920085,0.00166632,0.00306120,-0.01464241,-0.03862434
 ,-0.05179696,0.32612931,0.00000013,-0.00000094,-0.00000031,-0.00000051
 ,0.00000205,0.00000211,0.00000830,-0.00000055,0.00000043,0.00000210,0.
 00003326,-0.00001393,-0.00000474,-0.00000999,0.00000490,0.00000109,0.0
 0001622,-0.00000411,0.00000675,0.00003097,-0.00000416,-0.00001153,-0.0
 0000167,0.00000458,0.00000369,0.00000222,-0.00000247,0.00000330,-0.000
 00244,-0.00000676,-0.00000093,0.00000091,0.00000159,0.00000216,0.00000
 121,0.00000179,-0.00000099,0.00000141,0.00000059,-0.00000042,0.0000001
 1,0.00000017,-0.00000032,0.00000055,-0.00000039,0.00000003,-0.00000004
 ,-0.00000007,-0.00000022,-0.00000063,-0.00000017,0.00000017,-0.0000006
 8,-0.00000132,-0.00000173,0.00000119,0.,-0.00000186,0.00000184,-0.0000
 0088,0.00000196,-0.00006016,0.00001767,-0.00000765,-0.00005131,-0.0000
 0128,0.00000007,-0.00000012,0.00000004,-0.00000084,0.00000071,-0.00000
 055,0.00000021,-0.00000075,-0.00000036,-0.00000011,-0.00000336,0.00000
 006,-0.00000316,-0.00000211,-0.00000113,0.00000096,0.00000112,0.000000
 66,0.00000109,0.00000064,-0.00000041,0.00000058,0.00000033,0.00000015,
 -0.00000044,0.00000101,-0.00000010,0.00000064,0.00000091,-0.00000034,0
 .00000030,0.00000098,0.00000059,-0.00009597,0.00032131,-0.00025121,0.0
 0044870,0.00038091,-0.00040407,0.00029978,-0.00151089,0.00006552,-0.00
 352050,-0.00456576,0.02696727,-0.05204717,-0.00593222,0.03093238,0.001
 03713,-0.00091070,-0.00041198,-0.00359649,0.00350802,0.00185022,0.0546
 9238,-0.00000014,-0.00000035,0.00000041,0.00000038,0.00000031,-0.00000
 105,0.00000030,-0.00000081,0.,-0.00000348,-0.00000887,0.00000154,0.000
 01843,-0.00000716,-0.00000102,-0.00000544,0.00000589,-0.00000060,0.000
 00248,0.00003386,-0.00000168,-0.00001073,0.00000274,0.00000971,0.00000
 279,0.00000141,-0.00000148,0.00000068,-0.00000550,-0.00001116,-0.00000
 056,0.00000002,0.00000456,0.00000185,0.00000046,0.00000139,-0.00000011
 ,0.00000174,-0.00000164,-0.00000020,-0.00000002,-0.00000004,0.00000017
 ,-0.00000015,0.00000009,-0.00000010,0.00000006,0.00000001,0.00000041,-
 0.00000004,-0.00000003,-0.00000008,0.00000037,0.00000077,-0.00000004,0
 .00000020,0.00000016,-0.00000012,-0.00000011,0.00000019,0.00000087,0.0
 0001026,0.00000053,-0.00000968,-0.00005681,0.00000340,0.00000004,0.000
 00016,-0.00000017,-0.00000172,0.00000218,-0.00000347,-0.00000002,-0.00
 000020,-0.00000019,-0.00000065,-0.00000297,-0.00000055,-0.00000357,-0.
 00000093,-0.00000126,0.00000084,0.00000089,0.00000078,0.00000090,0.000
 00048,-0.00000023,0.00000084,-0.00000022,0.00000022,0.00000003,0.00000
 066,0.00000014,0.00000058,0.00000070,-0.00000007,0.00000026,0.00000091
 ,0.00000096,0.00011384,0.00003012,0.00025124,0.00019696,-0.00019337,-0
 .00029159,-0.00071386,0.00040579,-0.00050173,0.00185923,0.00267309,-0.
 01856172,-0.00610131,-0.05475977,0.04483754,-0.00066022,0.00056504,0.0
 0057748,0.00295080,-0.00159737,-0.00130596,0.00378945,0.05589766,-0.00
 000083,0.00000082,-0.00000046,0.00000004,-0.00000194,-0.00000201,-0.00
 000674,-0.00000010,-0.00000095,-0.00000833,-0.00003988,0.00002090,0.00
 002330,0.00000289,-0.00000444,-0.00000629,-0.00001008,0.00000345,-0.00
 000524,-0.00000192,0.00000305,0.00000700,0.00000375,-0.00000841,-0.000
 00218,-0.00000066,0.00000340,-0.00000204,0.,0.00001208,0.00000009,-0.0
 0000053,-0.00000139,-0.00000070,0.00000032,0.00000287,0.00000075,0.000
 00099,-0.00000414,0.00000047,0.00000022,-0.00000018,0.00000051,-0.0000
 0071,0.00000095,0.00000007,0.00000001,-0.00000007,0.00000015,0.0000017
 6,0.00000054,-0.00000004,0.00000059,0.00000167,0.00000101,-0.00000074,
 0.,0.00000175,-0.00000216,0.00000151,0.00000242,0.00006425,-0.00002851
 ,-0.00000855,0.00000365,-0.00000123,0.00000033,0.00000030,-0.00000063,
 -0.00000112,-0.00000344,-0.00000413,-0.00000117,0.00000040,-0.00000094
 ,0.00000025,-0.00000224,-0.00000217,-0.00000092,-0.00000102,-0.0000038
 4,0.00000068,0.00000099,0.00000134,-0.00000014,-0.00000012,0.00000100,
 0.00000028,0.00000008,0.00000068,-0.00000016,0.00000041,0.00000045,-0.
 00000005,0.00000039,0.00000076,0.00000029,0.00000095,0.00000179,-0.000
 16230,-0.00066576,0.00015944,-0.00103972,0.00034492,0.00093980,0.00106
 641,0.00169558,-0.00048169,0.00105250,0.00120571,-0.01003763,0.0319851
 3,0.04286566,-0.31066183,0.00015567,-0.00003952,0.00071591,0.00212487,
 -0.00132616,0.00072287,-0.03714634,-0.04762597,0.33508702,0.00000091,-
 0.00000159,-0.00000028,-0.00000315,0.00000233,0.00000317,0.00003728,-0
 .00000356,-0.00000280,0.00003967,0.00018254,-0.00007463,-0.00008538,-0
 .00003999,0.00000619,0.00002115,0.00006340,-0.00001245,0.00003899,0.00
 005528,-0.00000021,-0.00004279,-0.00000934,0.00000008,0.00001136,0.000
 00794,-0.00000128,0.00001134,-0.00000377,0.00000082,-0.00000358,-0.000
 00128,-0.00000031,0.00000748,0.00000166,0.00000014,-0.00000348,0.00000
 100,0.00000082,-0.00000185,0.00000045,-0.00000003,-0.00000079,0.000000
 98,-0.00000076,-0.00000055,0.00000080,0.00000019,0.00000036,-0.0000016
 2,0.00000220,-0.00000077,-0.00000127,-0.00000345,-0.00000640,0.0000060
 2,0.00000006,-0.00000852,0.00000683,-0.00000323,-0.00000770,-0.0002831
 8,0.00012403,-0.00001723,-0.00010839,0.00000588,-0.00000063,-0.0000012
 8,-0.00000011,-0.00000317,0.00000486,-0.00000085,0.00000140,0.00000018
 ,-0.00000006,-0.00000062,-0.00000293,-0.00000003,-0.00000697,-0.000000
 87,0.00000048,0.00000146,0.00000100,0.00000042,0.00000223,0.00000072,-
 0.00000136,0.00000165,-0.00000095,0.00000009,-0.00000003,0.00000092,-0
 .00000011,0.00000071,0.00000101,-0.00000053,0.00000023,0.00000085,0.00
 000066,-0.00097619,0.00337917,0.00021164,0.00119349,-0.00009397,-0.000
 48646,-0.00443353,-0.00158268,0.00274557,0.00447114,0.02813022,-0.0045
 0453,-0.05504646,-0.04514613,0.00580907,0.00103685,-0.00069560,-0.0006
 4429,0.00096624,-0.00084930,-0.00019510,-0.00167851,-0.00301626,-0.000
 06200,0.05794136,-0.00000172,0.00000192,-0.00000011,0.00000345,-0.0000
 0434,-0.00000241,-0.00004085,0.00000674,0.00000174,-0.00002927,-0.0001
 6530,0.00006754,0.00004493,0.00006386,-0.00001301,-0.00000959,-0.00008
 530,0.00001942,-0.00005288,-0.00013164,0.00000297,0.00006915,0.0000019
 5,0.00000026,-0.00001808,-0.00001283,-0.00000122,-0.00001702,0.0000103
 8,0.00000161,0.00000674,0.00000244,-0.00000045,-0.00001363,-0.00000472
 ,-0.00000393,0.00000483,-0.00000511,0.00000247,0.00000285,0.00000017,-
 0.00000003,0.00000101,-0.00000111,0.00000127,0.00000091,-0.00000132,-0
 .00000053,-0.00000060,0.00000156,-0.00000210,0.00000024,0.00000187,0.0
 0000318,0.00000747,-0.00000700,-0.00000050,0.00000911,-0.00000717,0.00
 000380,-0.00000525,0.00030145,-0.00012238,0.00006117,0.00027139,-0.000
 01176,0.00000045,0.00000155,-0.00000013,0.00000421,0.00000022,-0.00000
 006,-0.00000116,0.00000047,0.00000002,0.00000209,0.00001137,0.00000027
 ,0.00001704,0.00000393,0.00000026,-0.00000417,-0.00000333,-0.00000161,
 -0.00000541,-0.00000195,0.00000329,-0.00000421,0.00000113,-0.00000036,
 0.00000046,-0.00000317,0.00000045,-0.00000265,-0.00000343,0.00000136,-
 0.00000128,-0.00000339,-0.00000252,0.00124599,-0.00286861,-0.00034521,
 0.00006356,-0.00118604,0.00004679,0.00211388,0.00303658,-0.00124044,-0
 .00423609,-0.01577543,0.00299999,-0.04355884,-0.30801750,0.03776381,0.
 00001800,0.00066393,0.00038224,-0.00035467,0.00058974,-0.00027548,-0.0
 0066023,-0.00364351,0.00075222,0.04649203,0.33352182,-0.00000021,0.000
 00055,0.00000008,0.00000155,-0.00000082,-0.00000137,-0.00001518,0.0000
 0187,0.00000059,-0.00001888,-0.00007796,0.00003622,0.00003675,0.000014
 58,-0.00000260,-0.00000940,-0.00002567,0.00000466,-0.00001326,-0.00001
 672,0.00000629,0.00001507,0.00000363,-0.00000087,-0.00000382,-0.000002
 47,-0.00000123,-0.00000418,0.00000308,0.00000239,0.00000113,0.00000060
 ,-0.00000068,-0.00000251,-0.00000045,-0.00000068,0.00000117,-0.0000005
 9,0.00000105,0.00000062,-0.00000019,0.00000011,0.00000037,-0.00000041,
 0.00000032,0.00000021,-0.00000037,-0.00000004,0.00000027,0.00000087,-0
 .00000113,0.00000020,0.00000086,0.00000184,0.00000229,-0.00000241,0.00
 000005,0.00000366,-0.00000304,0.00000130,0.00000624,0.00012406,-0.0000
 5665,0.00000427,0.00003443,-0.00000478,0.00000020,0.00000045,0.0000000
 5,0.00000079,0.00000047,-0.00000185,-0.00000024,-0.00000007,-0.0000001
 3,0.00000020,0.00000117,-0.00000026,0.00000268,0.00000016,-0.00000034,
 -0.00000055,-0.00000032,-0.00000012,-0.00000088,-0.00000028,0.00000063
 ,-0.00000058,0.00000039,0.00000003,0.00000005,-0.00000041,0.00000005,-
 0.00000027,-0.00000036,0.00000031,-0.00000007,-0.00000033,-0.00000017,
 0.00044500,-0.00148871,-0.00001579,-0.00047023,0.00009024,0.00043930,0
 .00243125,0.00061388,-0.00044946,-0.00254855,-0.01302282,0.00093832,0.
 00573750,0.03857646,-0.05417150,-0.00020919,0.00053550,0.00021609,-0.0
 0071020,0.00016505,0.00033598,0.00536495,0.03152455,-0.00261981,-0.008
 49345,-0.04096240,0.05321343,0.00000070,-0.00000022,0.00000036,-0.0000
 0069,-0.00000016,-0.00000100,0.00000801,0.00000015,-0.00000169,0.00000
 760,0.00005101,-0.00001456,-0.00002953,-0.00000801,0.00000112,0.000006
 34,0.00001560,-0.00000287,0.00001018,0.00001816,0.00000492,-0.00001473
 ,-0.00000618,0.00000211,0.00000377,0.00000196,-0.00000152,0.00000297,-
 0.00000163,-0.00000807,-0.00000023,0.00000234,0.00000431,0.00000222,-0
 .00000045,-0.00000253,-0.00000095,-0.00000016,0.00000352,-0.00000012,-
 0.00000009,-0.00000015,-0.00000029,0.00000022,-0.00000048,-0.00000054,
 0.00000091,0.00000039,0.00000029,-0.00000022,0.00000232,-0.00000028,-0
 .00000124,-0.00000129,-0.00000145,0.00000241,0.00000055,-0.00000160,0.
 00000169,-0.00000109,0.00000580,-0.00006747,0.00002346,0.00000113,-0.0
 0003180,-0.00000905,-0.00000048,-0.00000037,-0.00000063,-0.00000024,0.
 00001448,-0.00000495,0.00000215,-0.00000055,-0.00000052,-0.00000017,0.
 00000231,-0.00000243,-0.00000057,0.00000187,-0.00000174,-0.00000006,-0
 .00000026,0.00000033,-0.00000026,-0.00000018,0.00000113,0.00000041,-0.
 00000066,0.00000054,0.00000063,-0.00000079,0.00000061,-0.00000059,-0.0
 0000062,0.00000058,-0.00000008,-0.00000041,0.00000051,0.00025003,0.000
 74923,0.00004146,0.00146766,-0.00009584,-0.00021437,-0.00069694,-0.002
 27500,0.00042177,-0.02167893,-0.00628658,-0.01229528,-0.24182620,-0.05
 786455,-0.10930029,-0.00309415,0.00340733,0.00251549,0.00105363,-0.000
 50039,0.00012675,0.00446263,0.00158619,0.00203087,-0.00345698,-0.00115
 197,-0.00155477,0.26351991,0.00000006,-0.00000038,0.00000010,0.0000000
 2,0.00000089,0.00000055,0.00000248,-0.00000107,0.00000123,-0.00000038,
 0.00000554,-0.00000171,0.00001288,-0.00000546,0.00000352,-0.00000278,0
 .00000815,-0.00000359,-0.00000004,0.00003110,0.00000168,-0.00000538,0.
 00000186,0.00000026,0.00000165,0.00000066,-0.00000104,-0.00000066,-0.0
 0000543,-0.00000015,-0.00000192,0.00000131,-0.00000120,0.00000238,0.00
 000119,-0.00000006,0.00000063,0.00000200,-0.00000060,-0.00000023,0.000
 00002,-0.00000002,-0.00000003,0.00000003,0.00000003,0.00000004,-0.0000
 0008,-0.00000002,-0.00000012,-0.00000035,-0.00000046,-0.00000020,0.000
 00019,0.,-0.00000027,0.00000013,0.00000021,-0.00000079,0.00000006,-0.0
 0000041,-0.00000449,-0.00000820,0.00000377,-0.00001105,-0.00005272,-0.
 00000515,0.00000012,0.00000004,0.00000028,-0.00000004,0.00000618,0.000
 00163,-0.00000041,-0.00000035,0.00000013,-0.00000104,-0.00000440,0.000
 00027,-0.00000468,-0.00000097,0.00000104,0.00000131,0.00000080,0.00000
 038,0.00000150,0.00000059,-0.00000113,0.00000111,-0.00000012,-0.000000
 13,-0.00000037,0.00000139,-0.00000007,0.00000081,0.00000124,-0.0000005
 5,0.00000034,0.00000130,0.00000070,-0.00012914,0.00005121,-0.00026731,
 0.00046575,-0.00021120,0.00004738,-0.00019295,0.00037787,0.00090263,0.
 01588724,0.00459291,0.00945741,-0.05969374,-0.06500170,-0.03326749,0.0
 0299523,-0.00164286,-0.00127190,-0.00088376,0.00061572,0.00020790,0.00
 561721,0.00064316,0.00277607,-0.02649624,-0.00656224,-0.01608603,0.062
 43993,0.06715199,0.00000046,0.00000025,-0.00000021,0.,-0.00000082,0.00
 000019,-0.00000172,0.00000042,-0.00000008,0.00000727,0.00000259,-0.000
 00228,-0.00001726,0.00000706,-0.00000271,0.00000441,-0.00000664,0.0000
 0239,0.00000024,-0.00002553,0.00000065,0.00000265,-0.00000517,0.000002
 79,-0.00000075,-0.00000184,-0.00000097,0.00000041,0.00000546,-0.000003
 78,0.00000044,0.00000187,0.00000098,-0.00000128,-0.00000164,-0.0000030
 9,-0.00000031,-0.00000235,0.00000238,0.00000007,-0.00000016,-0.0000000
 1,-0.00000004,-0.00000004,0.00000003,-0.00000003,0.00000011,0.00000011
 ,-0.00000006,0.00000040,0.00000006,-0.00000010,0.00000028,0.00000023,0
 .00000062,-0.00000036,0.,0.00000051,-0.00000049,0.00000016,-0.00000498
 ,0.00000298,0.00000186,0.00001090,0.00004848,-0.00000660,-0.00000040,-
 0.00000017,-0.00000004,0.00000093,0.00000696,-0.00000139,0.00000196,0.
 00000043,0.00000031,0.00000024,0.00000581,0.00000052,0.00000364,0.0000
 0396,0.00000142,-0.00000143,-0.00000191,-0.00000121,-0.00000131,-0.000
 00088,0.00000079,-0.00000048,-0.00000081,-0.00000003,0.00000074,-0.000
 00172,0.00000019,-0.00000080,-0.00000148,0.00000024,-0.00000050,-0.000
 00169,-0.00000141,0.00002494,0.00011429,-0.00019154,0.00036194,-0.0005
 3813,-0.00002466,-0.00074147,0.00014199,0.00044274,0.01185193,0.003912
 57,0.00628910,-0.11023571,-0.03222092,-0.11066333,0.00229989,-0.001725
 49,0.00020501,-0.00041521,0.00075288,0.00072011,-0.02696329,-0.0089040
 9,-0.01381700,0.00557679,0.00093166,0.00213038,0.11823617,0.03750186,0
 .11491770\\-0.00000027,-0.00000294,0.00000267,0.,-0.00000081,0.0000020
 2,-0.00000214,-0.00000216,0.00000193,0.00000088,0.00000244,0.00000008,
 -0.00000092,-0.00000169,0.00000428,-0.00000051,-0.00000009,0.00000025,
 0.00000067,0.00000356,-0.00000585,0.00000088,-0.00000214,0.00000031,-0
 .00000060,0.00000177,-0.00000004,-0.00000298,0.00000115,-0.00000191,0.
 00000154,0.00000321,-0.00000157,-0.00000104,0.00000149,-0.00000261,-0.
 00000275,0.00000227,-0.00000146,-0.00000007,-0.00000313,0.00000286,-0.
 00000091,-0.00000225,0.00000249,-0.00000036,-0.00000245,0.00000303,-0.
 00000001,-0.00000233,0.00000160,0.00000056,-0.00000234,0.00000209,0.00
 000004,-0.00000121,0.00000159,-0.00000147,-0.00000145,0.00000107,0.000
 00117,-0.00000402,0.00000164,-0.00000050,-0.00000112,0.00000240,-0.000
 00186,0.00000022,0.00000060,0.00000098,0.00000105,-0.00000072,-0.00000
 028,0.00000123,-0.00000218,-0.00000514,0.00000189,-0.00000417,-0.00000
 117,0.00000348,0.00000352,0.00000262,-0.00000119,-0.00000488,-0.000001
 50,0.00000424,-0.00000268,0.00000092,0.00000171,-0.00000132,-0.0000011
 6,0.00000075,0.00000125,-0.00000264,0.00000320,-0.00000304,-0.00000154
 ,0.00000232,0.00000254,-0.00000111,-0.00000099,-0.00000008,-0.00000149
 ,-0.00000124,-0.00000134,0.00000578,0.00000173,-0.00000013,0.00000065,
 -0.00000015,0.00000417,0.00000438,-0.00000095,-0.00000246,0.00000253,-
 0.00000126,-0.00000209,0.00000252,-0.00000172,-0.00000116,0.00000129,0
 .00000020,-0.00000100,0.00000278,-0.00000059,-0.00000060,0.00000227,0.
 00000033,-0.00000114\\\@


 WHAT THE SLIME CONTAINS, THE GLOWING REVEALS
 BY THE FLAME'S BRIGHT HUE WHEN YOU IGNITE IT.
   --  LEONARD THURNEYSSER, 1531-1596
 DESCRIBING HIS FLAME PHOTOLYSIS ANALYTIC METHOD
 Job cpu time:       0 days  9 hours 41 minutes 35.2 seconds.
 File lengths (MBytes):  RWF=   1451 Int=      0 D2E=      0 Chk=     34 Scr=      1
 Normal termination of Gaussian 09 at Tue Feb 19 14:44:17 2019.
WARNING: pbs_rusage is deprecated and values produced may not be accurate


=============================================================================
                                     Resource usage:
                                       CPU time:              41:41:52
   JobId:    5874189.r-man2            Elapsed time:          05:18:34
   Project:             q95            Requested time:        52:00:00
   Service Units:     42.48 
                                       Max physical memory:     1586MB
                                       Max virtual memory:      3292MB
                                       Requested memory:           0MB

                                       Number of cpus:               8

                                       Max jobfs disk use:       1.4GB
                                       Requested jobfs:         24.0GB
=============================================================================

