 Entering Gaussian System, Link 0=/apps/gaussian/g09e01/g09/g09
 AtFile(1): /home/507/hio507/Basis/6-31pGd.gbs
 Initial command:
 /apps/gaussian/g09e01/g09/l1.exe "/jobfs/local/1872969.r-man2/Gau-46552.inp" -scrdir="/jobfs/local/1872969.r-man2/"
 Entering Link 1 = /apps/gaussian/g09e01/g09/l1.exe PID=     46553.
  
 Copyright (c) 1988,1990,1992,1993,1995,1998,2003,2009,2015,
            Gaussian, Inc.  All Rights Reserved.
  
 This is part of the Gaussian(R) 09 program.  It is based on
 the Gaussian(R) 03 system (copyright 2003, Gaussian, Inc.),
 the Gaussian(R) 98 system (copyright 1998, Gaussian, Inc.),
 the Gaussian(R) 94 system (copyright 1995, Gaussian, Inc.),
 the Gaussian 92(TM) system (copyright 1992, Gaussian, Inc.),
 the Gaussian 90(TM) system (copyright 1990, Gaussian, Inc.),
 the Gaussian 88(TM) system (copyright 1988, Gaussian, Inc.),
 the Gaussian 86(TM) system (copyright 1986, Carnegie Mellon
 University), and the Gaussian 82(TM) system (copyright 1983,
 Carnegie Mellon University). Gaussian is a federally registered
 trademark of Gaussian, Inc.
  
 This software contains proprietary and confidential information,
 including trade secrets, belonging to Gaussian, Inc.
  
 This software is provided under written license and may be
 used, copied, transmitted, or stored only in accord with that
 written license.
  
 The following legend is applicable only to US Government
 contracts under FAR:
  
                    RESTRICTED RIGHTS LEGEND
  
 Use, reproduction and disclosure by the US Government is
 subject to restrictions as set forth in subparagraphs (a)
 and (c) of the Commercial Computer Software - Restricted
 Rights clause in FAR 52.227-19.
  
 Gaussian, Inc.
 340 Quinnipiac St., Bldg. 40, Wallingford CT 06492
  
  
 ---------------------------------------------------------------
 Warning -- This program may not be used in any manner that
 competes with the business of Gaussian, Inc. or will provide
 assistance to any competitor of Gaussian, Inc.  The licensee
 of this program is prohibited from giving any competitor of
 Gaussian, Inc. access to this program.  By using this program,
 the user acknowledges that Gaussian, Inc. is engaged in the
 business of creating and licensing software in the field of
 computational chemistry and represents and warrants to the
 licensee that it is not a competitor of Gaussian, Inc. and that
 it will not use this program in any manner prohibited above.
 ---------------------------------------------------------------
  

 Cite this work as:
 Gaussian 09, Revision E.01,
 M. J. Frisch, G. W. Trucks, H. B. Schlegel, G. E. Scuseria, 
 M. A. Robb, J. R. Cheeseman, G. Scalmani, V. Barone, B. Mennucci, 
 G. A. Petersson, H. Nakatsuji, M. Caricato, X. Li, H. P. Hratchian, 
 A. F. Izmaylov, J. Bloino, G. Zheng, J. L. Sonnenberg, M. Hada, 
 M. Ehara, K. Toyota, R. Fukuda, J. Hasegawa, M. Ishida, T. Nakajima, 
 Y. Honda, O. Kitao, H. Nakai, T. Vreven, J. A. Montgomery, Jr., 
 J. E. Peralta, F. Ogliaro, M. Bearpark, J. J. Heyd, E. Brothers, 
 K. N. Kudin, V. N. Staroverov, T. Keith, R. Kobayashi, J. Normand, 
 K. Raghavachari, A. Rendell, J. C. Burant, S. S. Iyengar, J. Tomasi, 
 M. Cossi, N. Rega, J. M. Millam, M. Klene, J. E. Knox, J. B. Cross, 
 V. Bakken, C. Adamo, J. Jaramillo, R. Gomperts, R. E. Stratmann, 
 O. Yazyev, A. J. Austin, R. Cammi, C. Pomelli, J. W. Ochterski, 
 R. L. Martin, K. Morokuma, V. G. Zakrzewski, G. A. Voth, 
 P. Salvador, J. J. Dannenberg, S. Dapprich, A. D. Daniels, 
 O. Farkas, J. B. Foresman, J. V. Ortiz, J. Cioslowski, 
 and D. J. Fox, Gaussian, Inc., Wallingford CT, 2013.
 
 ******************************************
 Gaussian 09:  ES64L-G09RevE.01 30-Nov-2015
                31-Oct-2018 
 ******************************************
 %chk=34TFM_a1.M062X_6-31pGd_opt.chk
 %mem=196608000
 %nproc=8
 Will use up to    8 processors via shared memory.
 ----------------------------------------------------------------------
 # M062X/Gen 6D SCF=Tight INT(grid=ultrafine) OPT IOP(2/17=4) maxdisk=2
 684354560
 ----------------------------------------------------------------------
 1/14=-1,18=20,19=15,26=4,38=1/1,3;
 2/9=110,12=2,17=4,18=5,40=1/2;
 3/5=7,8=2,11=2,16=1,25=1,30=1,71=1,74=-55,75=-5/1,2,3;
 4//1;
 5/5=2,32=2,38=5/2;
 6/7=2,8=2,9=2,10=2,28=1/1;
 7//1,2,3,16;
 1/14=-1,18=20,19=15,26=4/3(2);
 2/9=110,17=4/2;
 99//99;
 2/9=110,17=4/2;
 3/5=7,6=1,8=2,11=2,16=1,25=1,30=1,71=1,74=-55,75=-5,82=7/1,2,3;
 4/5=5,16=3,69=1/1;
 5/5=2,32=2,38=5/2;
 7//1,2,3,16;
 1/14=-1,18=20,19=15,26=4/3(-5);
 2/9=110,17=4/2;
 6/7=2,8=2,9=2,10=2,19=2,28=1/1;
 99/9=1/99;
 --------------------------
 34TFM_a1.M062X_6-31pGd_opt
 --------------------------
 Symbolic Z-matrix:
 Charge = -1 Multiplicity = 1
 C                    -1.8639    1.87912   0.16342 
 C                    -0.51546   1.31852  -0.27832 
 C                     0.62768   2.23876   0.1241 
 N                     1.90831   1.68128  -0.29036 
 C                     3.08639   2.32541   0.04548 
 O                     3.0312    3.55043   0.35122 
 N                     4.17069   1.52561   0.01934 
 C                     5.43022   2.05392   0.07857 
 C                     5.80368   3.37449  -0.29385 
 C                     6.48775   1.19869   0.46761 
 C                     7.80219   1.62897   0.5156 
 C                     8.15239   2.93746   0.16887 
 C                     7.12387   3.7989   -0.2568 
 H                    -2.68339   1.21624  -0.13055 
 H                    -2.04631   2.86069  -0.28837 
 H                    -1.90138   1.99827   1.25206 
 H                    -0.50364   1.18255  -1.36667 
 H                    -0.3586    0.32909   0.17069 
 H                     0.60514   2.40143   1.2125 
 H                     0.49588   3.21705  -0.34911 
 H                     1.97003   0.66935  -0.256 
 H                     5.03899   4.06014  -0.63149 
 H                     6.25      0.17465   0.741 
 H                     8.57433   0.93564   0.83343 
 C                     7.39165   5.22725  -0.66222 
 C                     9.59694   3.32516   0.23286 
 F                     9.79529   4.56128   0.73733 
 F                     10.21125   3.31121  -0.97444 
 F                     10.30788   2.48486   1.01039 
 F                     6.3828    5.75455  -1.37741 
 F                     8.4972    5.35371  -1.42183 
 F                     7.55946   6.04203   0.40152 
 

 GradGradGradGradGradGradGradGradGradGradGradGradGradGradGradGradGradGrad
 Berny optimization.
 Initialization pass.
                           ----------------------------
                           !    Initial Parameters    !
                           ! (Angstroms and Degrees)  !
 --------------------------                            --------------------------
 ! Name  Definition              Value          Derivative Info.                !
 --------------------------------------------------------------------------------
 ! R1    R(1,2)                  1.5257         estimate D2E/DX2                !
 ! R2    R(1,14)                 1.0943         estimate D2E/DX2                !
 ! R3    R(1,15)                 1.0958         estimate D2E/DX2                !
 ! R4    R(1,16)                 1.0958         estimate D2E/DX2                !
 ! R5    R(2,3)                  1.5217         estimate D2E/DX2                !
 ! R6    R(2,17)                 1.0969         estimate D2E/DX2                !
 ! R7    R(2,18)                 1.0978         estimate D2E/DX2                !
 ! R8    R(3,4)                  1.4569         estimate D2E/DX2                !
 ! R9    R(3,19)                 1.1007         estimate D2E/DX2                !
 ! R10   R(3,20)                 1.0947         estimate D2E/DX2                !
 ! R11   R(4,5)                  1.384          estimate D2E/DX2                !
 ! R12   R(4,21)                 1.0144         estimate D2E/DX2                !
 ! R13   R(5,6)                  1.2638         estimate D2E/DX2                !
 ! R14   R(5,7)                  1.3476         estimate D2E/DX2                !
 ! R15   R(7,8)                  1.3671         estimate D2E/DX2                !
 ! R16   R(8,9)                  1.422          estimate D2E/DX2                !
 ! R17   R(8,10)                 1.4146         estimate D2E/DX2                !
 ! R18   R(9,13)                 1.3872         estimate D2E/DX2                !
 ! R19   R(9,22)                 1.0811         estimate D2E/DX2                !
 ! R20   R(10,11)                1.3839         estimate D2E/DX2                !
 ! R21   R(10,23)                1.0862         estimate D2E/DX2                !
 ! R22   R(11,12)                1.3982         estimate D2E/DX2                !
 ! R23   R(11,24)                1.0853         estimate D2E/DX2                !
 ! R24   R(12,13)                1.4075         estimate D2E/DX2                !
 ! R25   R(12,26)                1.497          estimate D2E/DX2                !
 ! R26   R(13,25)                1.5087         estimate D2E/DX2                !
 ! R27   R(25,30)                1.3444         estimate D2E/DX2                !
 ! R28   R(25,31)                1.3473         estimate D2E/DX2                !
 ! R29   R(25,32)                1.3504         estimate D2E/DX2                !
 ! R30   R(26,27)                1.3498         estimate D2E/DX2                !
 ! R31   R(26,28)                1.3547         estimate D2E/DX2                !
 ! R32   R(26,29)                1.3476         estimate D2E/DX2                !
 ! A1    A(2,1,14)             111.1939         estimate D2E/DX2                !
 ! A2    A(2,1,15)             110.9083         estimate D2E/DX2                !
 ! A3    A(2,1,16)             110.9674         estimate D2E/DX2                !
 ! A4    A(14,1,15)            107.8901         estimate D2E/DX2                !
 ! A5    A(14,1,16)            107.8879         estimate D2E/DX2                !
 ! A6    A(15,1,16)            107.8488         estimate D2E/DX2                !
 ! A7    A(1,2,3)              111.4181         estimate D2E/DX2                !
 ! A8    A(1,2,17)             110.021          estimate D2E/DX2                !
 ! A9    A(1,2,18)             109.8175         estimate D2E/DX2                !
 ! A10   A(3,2,17)             109.2246         estimate D2E/DX2                !
 ! A11   A(3,2,18)             109.2409         estimate D2E/DX2                !
 ! A12   A(17,2,18)            107.0119         estimate D2E/DX2                !
 ! A13   A(2,3,4)              110.7133         estimate D2E/DX2                !
 ! A14   A(2,3,19)             109.6026         estimate D2E/DX2                !
 ! A15   A(2,3,20)             109.6137         estimate D2E/DX2                !
 ! A16   A(4,3,19)             110.8451         estimate D2E/DX2                !
 ! A17   A(4,3,20)             108.954          estimate D2E/DX2                !
 ! A18   A(19,3,20)            107.0322         estimate D2E/DX2                !
 ! A19   A(3,4,5)              120.0719         estimate D2E/DX2                !
 ! A20   A(3,4,21)             115.1863         estimate D2E/DX2                !
 ! A21   A(5,4,21)             113.8451         estimate D2E/DX2                !
 ! A22   A(4,5,6)              118.2065         estimate D2E/DX2                !
 ! A23   A(4,5,7)              113.8257         estimate D2E/DX2                !
 ! A24   A(6,5,7)              127.9597         estimate D2E/DX2                !
 ! A25   A(5,7,8)              120.737          estimate D2E/DX2                !
 ! A26   A(7,8,9)              126.1205         estimate D2E/DX2                !
 ! A27   A(7,8,10)             117.8414         estimate D2E/DX2                !
 ! A28   A(9,8,10)             115.9215         estimate D2E/DX2                !
 ! A29   A(8,9,13)             121.8074         estimate D2E/DX2                !
 ! A30   A(8,9,22)             119.0119         estimate D2E/DX2                !
 ! A31   A(13,9,22)            119.1718         estimate D2E/DX2                !
 ! A32   A(8,10,11)            122.1143         estimate D2E/DX2                !
 ! A33   A(8,10,23)            118.3946         estimate D2E/DX2                !
 ! A34   A(11,10,23)           119.4902         estimate D2E/DX2                !
 ! A35   A(10,11,12)           121.3496         estimate D2E/DX2                !
 ! A36   A(10,11,24)           119.1608         estimate D2E/DX2                !
 ! A37   A(12,11,24)           119.489          estimate D2E/DX2                !
 ! A38   A(11,12,13)           117.6926         estimate D2E/DX2                !
 ! A39   A(11,12,26)           118.2577         estimate D2E/DX2                !
 ! A40   A(13,12,26)           124.0235         estimate D2E/DX2                !
 ! A41   A(9,13,12)            121.0807         estimate D2E/DX2                !
 ! A42   A(9,13,25)            116.8321         estimate D2E/DX2                !
 ! A43   A(12,13,25)           122.0728         estimate D2E/DX2                !
 ! A44   A(13,25,30)           112.4018         estimate D2E/DX2                !
 ! A45   A(13,25,31)           112.706          estimate D2E/DX2                !
 ! A46   A(13,25,32)           112.4323         estimate D2E/DX2                !
 ! A47   A(30,25,31)           106.2021         estimate D2E/DX2                !
 ! A48   A(30,25,32)           106.0019         estimate D2E/DX2                !
 ! A49   A(31,25,32)           106.5892         estimate D2E/DX2                !
 ! A50   A(12,26,27)           113.2627         estimate D2E/DX2                !
 ! A51   A(12,26,28)           113.3789         estimate D2E/DX2                !
 ! A52   A(12,26,29)           111.8534         estimate D2E/DX2                !
 ! A53   A(27,26,28)           106.0143         estimate D2E/DX2                !
 ! A54   A(27,26,29)           106.1338         estimate D2E/DX2                !
 ! A55   A(28,26,29)           105.5784         estimate D2E/DX2                !
 ! D1    D(14,1,2,3)           179.8184         estimate D2E/DX2                !
 ! D2    D(14,1,2,17)           58.5276         estimate D2E/DX2                !
 ! D3    D(14,1,2,18)          -59.0083         estimate D2E/DX2                !
 ! D4    D(15,1,2,3)            59.7632         estimate D2E/DX2                !
 ! D5    D(15,1,2,17)          -61.5276         estimate D2E/DX2                !
 ! D6    D(15,1,2,18)         -179.0634         estimate D2E/DX2                !
 ! D7    D(16,1,2,3)           -60.0897         estimate D2E/DX2                !
 ! D8    D(16,1,2,17)          178.6195         estimate D2E/DX2                !
 ! D9    D(16,1,2,18)           61.0837         estimate D2E/DX2                !
 ! D10   D(1,2,3,4)            179.3034         estimate D2E/DX2                !
 ! D11   D(1,2,3,19)            56.7215         estimate D2E/DX2                !
 ! D12   D(1,2,3,20)           -60.4717         estimate D2E/DX2                !
 ! D13   D(17,2,3,4)           -58.9428         estimate D2E/DX2                !
 ! D14   D(17,2,3,19)          178.4752         estimate D2E/DX2                !
 ! D15   D(17,2,3,20)           61.282          estimate D2E/DX2                !
 ! D16   D(18,2,3,4)            57.7943         estimate D2E/DX2                !
 ! D17   D(18,2,3,19)          -64.7877         estimate D2E/DX2                !
 ! D18   D(18,2,3,20)          178.0191         estimate D2E/DX2                !
 ! D19   D(2,3,4,5)           -176.36           estimate D2E/DX2                !
 ! D20   D(2,3,4,21)           -34.3124         estimate D2E/DX2                !
 ! D21   D(19,3,4,5)           -54.5044         estimate D2E/DX2                !
 ! D22   D(19,3,4,21)           87.5432         estimate D2E/DX2                !
 ! D23   D(20,3,4,5)            63.0222         estimate D2E/DX2                !
 ! D24   D(20,3,4,21)         -154.9302         estimate D2E/DX2                !
 ! D25   D(3,4,5,6)            -20.3675         estimate D2E/DX2                !
 ! D26   D(3,4,5,7)            158.6765         estimate D2E/DX2                !
 ! D27   D(21,4,5,6)          -162.8881         estimate D2E/DX2                !
 ! D28   D(21,4,5,7)            16.1559         estimate D2E/DX2                !
 ! D29   D(4,5,7,8)            167.6568         estimate D2E/DX2                !
 ! D30   D(6,5,7,8)            -13.4118         estimate D2E/DX2                !
 ! D31   D(5,7,8,9)            -23.6374         estimate D2E/DX2                !
 ! D32   D(5,7,8,10)           160.4649         estimate D2E/DX2                !
 ! D33   D(7,8,9,13)          -176.8972         estimate D2E/DX2                !
 ! D34   D(7,8,9,22)             2.0092         estimate D2E/DX2                !
 ! D35   D(10,8,9,13)           -0.9303         estimate D2E/DX2                !
 ! D36   D(10,8,9,22)          177.9761         estimate D2E/DX2                !
 ! D37   D(7,8,10,11)          177.8748         estimate D2E/DX2                !
 ! D38   D(7,8,10,23)           -2.4724         estimate D2E/DX2                !
 ! D39   D(9,8,10,11)            1.5586         estimate D2E/DX2                !
 ! D40   D(9,8,10,23)         -178.7886         estimate D2E/DX2                !
 ! D41   D(8,9,13,12)           -0.7449         estimate D2E/DX2                !
 ! D42   D(8,9,13,25)         -179.3898         estimate D2E/DX2                !
 ! D43   D(22,9,13,12)        -179.6496         estimate D2E/DX2                !
 ! D44   D(22,9,13,25)           1.7055         estimate D2E/DX2                !
 ! D45   D(8,10,11,12)          -0.5163         estimate D2E/DX2                !
 ! D46   D(8,10,11,24)         179.2123         estimate D2E/DX2                !
 ! D47   D(23,10,11,12)        179.8346         estimate D2E/DX2                !
 ! D48   D(23,10,11,24)         -0.4368         estimate D2E/DX2                !
 ! D49   D(10,11,12,13)         -1.1918         estimate D2E/DX2                !
 ! D50   D(10,11,12,26)       -179.4058         estimate D2E/DX2                !
 ! D51   D(24,11,12,13)        179.0805         estimate D2E/DX2                !
 ! D52   D(24,11,12,26)          0.8664         estimate D2E/DX2                !
 ! D53   D(11,12,13,9)           1.8076         estimate D2E/DX2                !
 ! D54   D(11,12,13,25)       -179.6194         estimate D2E/DX2                !
 ! D55   D(26,12,13,9)         179.9096         estimate D2E/DX2                !
 ! D56   D(26,12,13,25)         -1.5175         estimate D2E/DX2                !
 ! D57   D(11,12,26,27)       -139.3747         estimate D2E/DX2                !
 ! D58   D(11,12,26,28)         99.7619         estimate D2E/DX2                !
 ! D59   D(11,12,26,29)        -19.487          estimate D2E/DX2                !
 ! D60   D(13,12,26,27)         42.5334         estimate D2E/DX2                !
 ! D61   D(13,12,26,28)        -78.33           estimate D2E/DX2                !
 ! D62   D(13,12,26,29)        162.4211         estimate D2E/DX2                !
 ! D63   D(9,13,25,30)         -18.926          estimate D2E/DX2                !
 ! D64   D(9,13,25,31)        -138.9021         estimate D2E/DX2                !
 ! D65   D(9,13,25,32)         100.5956         estimate D2E/DX2                !
 ! D66   D(12,13,25,30)        162.4436         estimate D2E/DX2                !
 ! D67   D(12,13,25,31)         42.4675         estimate D2E/DX2                !
 ! D68   D(12,13,25,32)        -78.0348         estimate D2E/DX2                !
 --------------------------------------------------------------------------------
 Trust Radius=3.00D-01 FncErr=1.00D-07 GrdErr=1.00D-06
 Number of steps in this run=    165 maximum allowed number of steps=    192.
 GradGradGradGradGradGradGradGradGradGradGradGradGradGradGradGradGradGrad

                          Input orientation:                          
 ---------------------------------------------------------------------
 Center     Atomic      Atomic             Coordinates (Angstroms)
 Number     Number       Type             X           Y           Z
 ---------------------------------------------------------------------
      1          6           0       -1.863899    1.879119    0.163424
      2          6           0       -0.515460    1.318516   -0.278323
      3          6           0        0.627679    2.238759    0.124104
      4          7           0        1.908309    1.681276   -0.290360
      5          6           0        3.086392    2.325411    0.045476
      6          8           0        3.031204    3.550428    0.351216
      7          7           0        4.170689    1.525614    0.019341
      8          6           0        5.430223    2.053919    0.078566
      9          6           0        5.803679    3.374486   -0.293850
     10          6           0        6.487751    1.198685    0.467608
     11          6           0        7.802186    1.628968    0.515599
     12          6           0        8.152389    2.937457    0.168866
     13          6           0        7.123870    3.798905   -0.256795
     14          1           0       -2.683394    1.216238   -0.130551
     15          1           0       -2.046307    2.860695   -0.288373
     16          1           0       -1.901376    1.998266    1.252062
     17          1           0       -0.503639    1.182549   -1.366670
     18          1           0       -0.358603    0.329091    0.170690
     19          1           0        0.605145    2.401430    1.212499
     20          1           0        0.495884    3.217046   -0.349115
     21          1           0        1.970026    0.669350   -0.256002
     22          1           0        5.038991    4.060135   -0.631494
     23          1           0        6.250001    0.174646    0.740998
     24          1           0        8.574332    0.935639    0.833429
     25          6           0        7.391647    5.227253   -0.662224
     26          6           0        9.596943    3.325155    0.232860
     27          9           0        9.795289    4.561280    0.737328
     28          9           0       10.211250    3.311213   -0.974443
     29          9           0       10.307878    2.484864    1.010394
     30          9           0        6.382802    5.754547   -1.377414
     31          9           0        8.497204    5.353713   -1.421828
     32          9           0        7.559465    6.042025    0.401516
 ---------------------------------------------------------------------
                    Distance matrix (angstroms):
                    1          2          3          4          5
     1  C    0.000000
     2  C    1.525682   0.000000
     3  C    2.517707   1.521697   0.000000
     4  N    3.804552   2.450795   1.456908   0.000000
     5  C    4.971767   3.753934   2.461495   1.384043   0.000000
     6  O    5.175960   4.237519   2.747541   2.272936   1.263799
     7  N    6.046650   4.700158   3.615587   2.288779   1.347613
     8  C    7.296710   6.001611   4.806316   3.560737   2.359735
     9  C    7.825406   6.645206   5.315594   4.247456   2.932465
    10  C    8.384842   7.043844   5.961560   4.666766   3.607902
    11  C    9.675732   8.361215   7.211010   5.948957   4.790069
    12  C   10.072047   8.829074   7.557211   6.385719   5.104327
    13  C    9.200117   8.031946   6.691759   5.629170   4.308571
    14  H    1.094260   2.175370   3.474709   4.617958   5.878067
    15  H    1.095849   2.172996   2.776174   4.126745   5.171323
    16  H    1.095779   2.173685   2.779613   4.122287   5.142052
    17  H    2.162570   1.096871   2.148922   2.687874   4.023507
    18  H    2.160683   1.097806   2.149827   2.679527   3.983587
    19  H    2.733047   2.156620   1.100716   2.115525   2.743047
    20  H    2.760674   2.152265   1.094692   2.087340   2.767932
    21  H    4.042083   2.568959   2.099862   1.014389   2.019827
    22  H    7.282762   6.204283   4.831978   3.946709   2.698185
    23  H    8.311088   6.936779   6.020932   4.709981   3.888182
    24  H   10.502177   9.165528   8.083970   6.801084   5.715753
    25  C    9.877086   8.828813   7.436442   6.540583   5.239919
    26  C   11.551915  10.322238   9.035474   7.879797   6.589528
    27  F   11.977479  10.856270   9.477089   8.459019   7.105425
    28  F   12.212897  10.932417   9.705761   8.489022   7.264685
    29  F   12.216236  10.962016   9.723802   8.537592   7.287411
    30  F    9.241277   8.274804   6.909179   6.147707   4.964867
    31  F   11.042567   9.940751   8.603619   7.627617   6.371851
    32  F   10.304671   9.379666   7.911475   7.171498   5.826523
                    6          7          8          9         10
     6  O    0.000000
     7  N    2.347006   0.000000
     8  C    2.840629   1.367128   0.000000
     9  C    2.851962   2.486578   1.421991   0.000000
    10  C    4.182339   2.382562   1.414618   2.404554   0.000000
    11  C    5.145998   3.666705   2.449038   2.774179   1.383902
    12  C    5.160961   4.227244   2.863386   2.433421   2.425612
    13  C    4.145038   3.737028   2.454767   1.387231   2.773183
    14  H    6.191701   6.862699   8.159426   8.758716   9.190648
    15  H    5.163906   6.366174   7.528881   7.866785   8.727196
    16  H    5.248912   6.213935   7.425129   7.978202   8.463579
    17  H    4.588365   4.887542   6.169174   6.762972   7.228027
    18  H    4.679785   4.687117   6.041029   6.889409   6.907744
    19  H    2.819178   3.860542   4.968697   5.499153   6.050332
    20  H    2.651311   4.062130   5.087581   5.310417   6.375209
    21  H    3.129764   2.377377   3.741916   4.692131   4.605828
    22  H    2.292756   2.757051   2.163828   1.081141   3.390402
    23  H    4.680650   2.582526   2.154650   3.392505   1.086243
    24  H    6.147839   4.516955   3.421372   3.859437   2.134675
    25  C    4.780405   4.953911   3.803420   2.467810   4.280526
    26  C    6.570669   5.720854   4.359060   3.829975   3.774130
    27  F    6.850091   6.431709   5.076871   4.290076   4.724362
    28  F    7.305318   6.376861   5.054487   4.460257   4.517381
    29  F    7.383761   6.290265   4.984529   4.772870   4.067215
    30  F    4.368010   4.972750   4.089246   2.678467   4.916401
    31  F    6.022681   5.953993   4.748283   3.527712   4.987195
    32  F    5.168727   5.659313   4.532434   3.268345   4.960935
                   11         12         13         14         15
    11  C    0.000000
    12  C    1.398216   0.000000
    13  C    2.401110   1.407526   0.000000
    14  H   10.513574  10.975720  10.142413   0.000000
    15  H    9.957728  10.209229   9.218101   1.770600   0.000000
    16  H    9.738474  10.155471   9.325987   1.770519   1.771363
    17  H    8.528127   8.964618   8.139781   2.506085   2.521652
    18  H    8.270860   8.901717   8.258920   2.506477   3.077028
    19  H    7.271848   7.637892   6.826825   3.744723   3.081191
    20  H    7.526737   7.679098   6.654118   3.762819   2.567764
    21  H    5.960732   6.598973   6.029613   4.687125   4.575366
    22  H    3.855080   3.405030   2.134329   8.244630   7.194293
    23  H    2.138957   3.402872   3.859338   9.036042   8.780842
    24  H    1.085325   2.151036   3.389796  11.302407  10.851833
    25  C    3.808341   2.551980   1.508727  10.857135   9.737317
    26  C    2.485588   1.497045   2.565208  12.465403  11.664163
    27  F    3.552474   2.378880   2.950588  12.948360  12.006975
    28  F    3.294505   2.384483   3.206989  13.090948  12.285006
    29  F    2.693672   2.357784   3.670201  13.102836  12.427950
    30  F    4.755896   3.668571   2.372658  10.215029   8.978322
    31  F    4.255631   2.913330   2.379238  11.991324  10.893369
    32  F    4.421199   3.169231   2.377962  11.335231  10.142370
                   16         17         18         19         20
    16  H    0.000000
    17  H    3.078445   0.000000
    18  H    2.517073   1.764342   0.000000
    19  H    2.539046   3.060586   2.511726   0.000000
    20  H    3.129864   2.484682   3.056244   1.765165   0.000000
    21  H    4.362113   2.759705   2.391726   2.649433   2.944915
    22  H    7.481162   6.288222   6.610463   5.080414   4.629294
    23  H    8.368496   7.146312   6.634964   6.086483   6.599576
    24  H   10.537785   9.344033   8.977999   8.111732   8.477297
    25  C   10.022531   8.898956   9.206091   7.586599   7.189612
    26  C   11.619413  10.448493  10.396787   9.092052   9.120289
    27  F   11.985239  11.041310  11.015172   9.452486   9.458660
    28  F   12.385350  10.931326  11.042019   9.893821   9.735926
    29  F   12.221337  11.146091  10.914499   9.705196   9.932753
    30  F    9.468442   8.265975   8.790833   7.164661   6.492466
    31  F   11.248964   9.920525  10.305739   8.828378   8.350879
    32  F   10.323901   9.578863   9.766611   7.891400   7.644484
                   21         22         23         24         25
    21  H    0.000000
    22  H    4.588787   0.000000
    23  H    4.422322   4.295032   0.000000
    24  H    6.698854   4.940355   2.447483   0.000000
    25  C    7.094609   2.626423   5.366677   4.696134   0.000000
    26  C    8.090869   4.697045   4.624493   2.667622   3.046716
    27  F    8.795940   4.974654   5.640180   3.826910   2.860027
    28  F    8.684088   5.237439   5.335943   3.404593   3.423281
    29  F    8.626681   5.739202   4.677184   2.331650   4.338520
    30  F    6.825642   2.287631   5.969975   5.736942   1.344361
    31  F    8.118279   3.775871   6.045698   4.960998   1.347311
    32  F    7.780733   3.368647   6.021302   5.224144   1.350392
                   26         27         28         29         30
    26  C    0.000000
    27  F    1.349753   0.000000
    28  F    1.354677   2.160058   0.000000
    29  F    1.347619   2.156112   2.152155   0.000000
    30  F    4.338851   4.188208   4.559527   5.639032   0.000000
    31  F    2.839447   2.641009   2.703685   4.174271   2.152519
    32  F    3.400168   2.702644   4.047538   4.536287   2.152155
                   31         32
    31  F    0.000000
    32  F    2.162802   0.000000
 Stoichiometry    C12H11F6N2O(1-)
 Framework group  C1[X(C12H11F6N2O)]
 Deg. of freedom    90
 Full point group                 C1      NOp   1
 Largest Abelian subgroup         C1      NOp   1
 Largest concise Abelian subgroup C1      NOp   1
                         Standard orientation:                         
 ---------------------------------------------------------------------
 Center     Atomic      Atomic             Coordinates (Angstroms)
 Number     Number       Type             X           Y           Z
 ---------------------------------------------------------------------
      1          6           0       -7.695246    0.412359    0.295940
      2          6           0       -6.507906   -0.292303   -0.353197
      3          6           0       -5.187345    0.205203    0.216161
      4          7           0       -4.065497   -0.488874   -0.402140
      5          6           0       -2.773708   -0.239493    0.027586
      6          8           0       -2.548947    0.836348    0.651474
      7          7           0       -1.901435   -1.222426   -0.270814
      8          6           0       -0.554825   -1.024307   -0.142637
      9          6           0        0.114180    0.230193   -0.169509
     10          6           0        0.275548   -2.166199   -0.054854
     11          6           0        1.653213   -2.069003    0.033340
     12          6           0        2.296622   -0.827626    0.029245
     13          6           0        1.496187    0.323596   -0.093721
     14          1           0       -8.642619    0.054225   -0.118344
     15          1           0       -7.644391    1.494839    0.133048
     16          1           0       -7.712641    0.235886    1.377276
     17          1           0       -6.519342   -0.125945   -1.437318
     18          1           0       -6.585411   -1.375687   -0.193662
     19          1           0       -5.180216    0.066214    1.308043
     20          1           0       -5.087817    1.279172    0.028980
     21          1           0       -4.237631   -1.459268   -0.642325
     22          1           0       -0.470416    1.134164   -0.269258
     23          1           0       -0.192654   -3.146353   -0.051703
     24          1           0        2.243458   -2.976429    0.111563
     25          6           0        2.087284    1.711501   -0.117772
     26          6           0        3.791057   -0.803611    0.114283
     27          9           0        4.263638    0.172103    0.918323
     28          9           0        4.394917   -0.624729   -1.085093
     29          9           0        4.284563   -1.960134    0.599035
     30          9           0        1.231593    2.624346   -0.609515
     31          9           0        3.198100    1.790611   -0.876109
     32          9           0        2.429347    2.147317    1.113738
 ---------------------------------------------------------------------
 Rotational constants (GHZ):      0.7095573      0.1197094      0.1072528
 General basis read from cards:  (6D, 7F)
 There are   421 symmetry adapted cartesian basis functions of A   symmetry.
 There are   421 symmetry adapted basis functions of A   symmetry.
   421 basis functions,   716 primitive gaussians,   421 cartesian basis functions
    80 alpha electrons       80 beta electrons
       nuclear repulsion energy      1758.1970128918 Hartrees.
 NAtoms=   32 NActive=   32 NUniq=   32 SFac= 1.00D+00 NAtFMM=   60 NAOKFM=F Big=F
 Integral buffers will be    131072 words long.
 Raffenetti 2 integral format.
 Two-electron integral symmetry is turned on.
 One-electron integrals computed using PRISM.
 NBasis=   421 RedAO= T EigKep=  1.30D-06  NBF=   421
 NBsUse=   420 1.00D-06 EigRej=  2.33D-07 NBFU=   420
 ExpMin= 4.38D-02 ExpMax= 7.00D+03 ExpMxC= 1.05D+03 IAcc=3 IRadAn=         5 AccDes= 0.00D+00
 Harris functional with IExCor= 1009 and IRadAn=       5 diagonalized for initial guess.
 HarFok:  IExCor= 1009 AccDes= 0.00D+00 IRadAn=         5 IDoV= 1 UseB2=F ITyADJ=14
 ICtDFT=  3500011 ScaDFX=  1.000000  1.000000  1.000000  1.000000
 FoFCou: FMM=F IPFlag=           0 FMFlag=      100000 FMFlg1=           0
         NFxFlg=           0 DoJE=T BraDBF=F KetDBF=T FulRan=T
         wScrn=  0.000000 ICntrl=     500 IOpCl=  0 I1Cent=   200000004 NGrid=           0
         NMat0=    1 NMatS0=      1 NMatT0=    0 NMatD0=    1 NMtDS0=    0 NMtDT0=    0
 Petite list used in FoFCou.
 Requested convergence on RMS density matrix=1.00D-08 within 128 cycles.
 Requested convergence on MAX density matrix=1.00D-06.
 Requested convergence on             energy=1.00D-06.
 No special actions if energy rises.
 SCF Done:  E(RM062X) =  -1247.38240247     A.U. after   16 cycles
            NFock= 16  Conv=0.81D-08     -V/T= 2.0078

 **********************************************************************

            Population analysis using the SCF density.

 **********************************************************************

 Orbital symmetries:
       Occupied  (A) (A) (A) (A) (A) (A) (A) (A) (A) (A) (A) (A)
                 (A) (A) (A) (A) (A) (A) (A) (A) (A) (A) (A) (A)
                 (A) (A) (A) (A) (A) (A) (A) (A) (A) (A) (A) (A)
                 (A) (A) (A) (A) (A) (A) (A) (A) (A) (A) (A) (A)
                 (A) (A) (A) (A) (A) (A) (A) (A) (A) (A) (A) (A)
                 (A) (A) (A) (A) (A) (A) (A) (A) (A) (A) (A) (A)
                 (A) (A) (A) (A) (A) (A) (A) (A)
       Virtual   (A) (A) (A) (A) (A) (A) (A) (A) (A) (A) (A) (A)
                 (A) (A) (A) (A) (A) (A) (A) (A) (A) (A) (A) (A)
                 (A) (A) (A) (A) (A) (A) (A) (A) (A) (A) (A) (A)
                 (A) (A) (A) (A) (A) (A) (A) (A) (A) (A) (A) (A)
                 (A) (A) (A) (A) (A) (A) (A) (A) (A) (A) (A) (A)
                 (A) (A) (A) (A) (A) (A) (A) (A) (A) (A) (A) (A)
                 (A) (A) (A) (A) (A) (A) (A) (A) (A) (A) (A) (A)
                 (A) (A) (A) (A) (A) (A) (A) (A) (A) (A) (A) (A)
                 (A) (A) (A) (A) (A) (A) (A) (A) (A) (A) (A) (A)
                 (A) (A) (A) (A) (A) (A) (A) (A) (A) (A) (A) (A)
                 (A) (A) (A) (A) (A) (A) (A) (A) (A) (A) (A) (A)
                 (A) (A) (A) (A) (A) (A) (A) (A) (A) (A) (A) (A)
                 (A) (A) (A) (A) (A) (A) (A) (A) (A) (A) (A) (A)
                 (A) (A) (A) (A) (A) (A) (A) (A) (A) (A) (A) (A)
                 (A) (A) (A) (A) (A) (A) (A) (A) (A) (A) (A) (A)
                 (A) (A) (A) (A) (A) (A) (A) (A) (A) (A) (A) (A)
                 (A) (A) (A) (A) (A) (A) (A) (A) (A) (A) (A) (A)
                 (A) (A) (A) (A) (A) (A) (A) (A) (A) (A) (A) (A)
                 (A) (A) (A) (A) (A) (A) (A) (A) (A) (A) (A) (A)
                 (A) (A) (A) (A) (A) (A) (A) (A) (A) (A) (A) (A)
                 (A) (A) (A) (A) (A) (A) (A) (A) (A) (A) (A) (A)
                 (A) (A) (A) (A) (A) (A) (A) (A) (A) (A) (A) (A)
                 (A) (A) (A) (A) (A) (A) (A) (A) (A) (A) (A) (A)
                 (A) (A) (A) (A) (A) (A) (A) (A) (A) (A) (A) (A)
                 (A) (A) (A) (A) (A) (A) (A) (A) (A) (A) (A) (A)
                 (A) (A) (A) (A) (A) (A) (A) (A) (A) (A) (A) (A)
                 (A) (A) (A) (A) (A) (A) (A) (A) (A) (A) (A) (A)
                 (A) (A) (A) (A) (A) (A) (A) (A) (A) (A) (A) (A)
                 (A) (A) (A) (A)
 The electronic state is 1-A.
 Alpha  occ. eigenvalues --  -25.19389 -25.18759 -25.18743 -25.18701 -25.18372
 Alpha  occ. eigenvalues --  -25.18277 -19.44894 -14.63972 -14.57854 -10.69863
 Alpha  occ. eigenvalues --  -10.69697 -10.51269 -10.46745 -10.46712 -10.46507
 Alpha  occ. eigenvalues --  -10.46250 -10.45992 -10.45574 -10.44948 -10.42891
 Alpha  occ. eigenvalues --  -10.42696  -1.35607  -1.35146  -1.26474  -1.25959
 Alpha  occ. eigenvalues --   -1.25769  -1.25528  -0.99769  -0.88687  -0.87453
 Alpha  occ. eigenvalues --   -0.83754  -0.78981  -0.76672  -0.74839  -0.69549
 Alpha  occ. eigenvalues --   -0.68351  -0.66469  -0.60789  -0.60719  -0.58529
 Alpha  occ. eigenvalues --   -0.57853  -0.57688  -0.57414  -0.57208  -0.55170
 Alpha  occ. eigenvalues --   -0.52649  -0.49064  -0.46672  -0.46452  -0.46279
 Alpha  occ. eigenvalues --   -0.45732  -0.45552  -0.45210  -0.43534  -0.42270
 Alpha  occ. eigenvalues --   -0.42107  -0.41596  -0.41082  -0.40636  -0.39813
 Alpha  occ. eigenvalues --   -0.39610  -0.39504  -0.38924  -0.38307  -0.37161
 Alpha  occ. eigenvalues --   -0.35852  -0.34823  -0.34451  -0.33110  -0.32478
 Alpha  occ. eigenvalues --   -0.31568  -0.30769  -0.29992  -0.29002  -0.23840
 Alpha  occ. eigenvalues --   -0.20575  -0.19666  -0.17868  -0.15843  -0.11022
 Alpha virt. eigenvalues --    0.09475   0.10975   0.11462   0.12072   0.12602
 Alpha virt. eigenvalues --    0.12992   0.13144   0.13550   0.13792   0.14543
 Alpha virt. eigenvalues --    0.14876   0.15379   0.15888   0.16150   0.16444
 Alpha virt. eigenvalues --    0.16698   0.17156   0.17684   0.18366   0.18608
 Alpha virt. eigenvalues --    0.19020   0.20294   0.21047   0.21620   0.22004
 Alpha virt. eigenvalues --    0.22566   0.23314   0.23492   0.24093   0.24594
 Alpha virt. eigenvalues --    0.25773   0.26012   0.26524   0.27140   0.27521
 Alpha virt. eigenvalues --    0.28191   0.28575   0.28885   0.29686   0.29970
 Alpha virt. eigenvalues --    0.30257   0.30769   0.31384   0.31834   0.32253
 Alpha virt. eigenvalues --    0.32378   0.33153   0.33356   0.33711   0.34277
 Alpha virt. eigenvalues --    0.34658   0.34946   0.35224   0.35838   0.36359
 Alpha virt. eigenvalues --    0.36574   0.37412   0.37920   0.38209   0.38419
 Alpha virt. eigenvalues --    0.38996   0.39240   0.39744   0.39961   0.40304
 Alpha virt. eigenvalues --    0.40640   0.40895   0.41610   0.42027   0.42318
 Alpha virt. eigenvalues --    0.42703   0.43269   0.43360   0.43734   0.44313
 Alpha virt. eigenvalues --    0.44956   0.45043   0.45717   0.46183   0.46819
 Alpha virt. eigenvalues --    0.47290   0.47570   0.47732   0.48578   0.48739
 Alpha virt. eigenvalues --    0.49341   0.49444   0.49814   0.50509   0.50889
 Alpha virt. eigenvalues --    0.51114   0.51808   0.52114   0.52604   0.53254
 Alpha virt. eigenvalues --    0.53637   0.54072   0.55109   0.55305   0.56107
 Alpha virt. eigenvalues --    0.56537   0.57194   0.57595   0.57919   0.59124
 Alpha virt. eigenvalues --    0.59541   0.60101   0.61056   0.62234   0.63034
 Alpha virt. eigenvalues --    0.63833   0.64469   0.67231   0.68258   0.69012
 Alpha virt. eigenvalues --    0.70212   0.73587   0.76726   0.77540   0.78240
 Alpha virt. eigenvalues --    0.80490   0.82342   0.83822   0.85136   0.86530
 Alpha virt. eigenvalues --    0.87284   0.87579   0.88592   0.89593   0.90138
 Alpha virt. eigenvalues --    0.90817   0.92982   0.94683   0.95140   0.95653
 Alpha virt. eigenvalues --    0.96325   0.97326   0.98311   1.00033   1.00715
 Alpha virt. eigenvalues --    1.02205   1.02978   1.04492   1.06377   1.06783
 Alpha virt. eigenvalues --    1.07421   1.07557   1.08310   1.09627   1.11032
 Alpha virt. eigenvalues --    1.12062   1.13215   1.14896   1.16014   1.17689
 Alpha virt. eigenvalues --    1.18089   1.19259   1.20360   1.22300   1.24325
 Alpha virt. eigenvalues --    1.24673   1.25404   1.25664   1.27749   1.28332
 Alpha virt. eigenvalues --    1.30035   1.30683   1.31455   1.32255   1.35035
 Alpha virt. eigenvalues --    1.36729   1.37789   1.38232   1.40610   1.42060
 Alpha virt. eigenvalues --    1.43656   1.45949   1.46175   1.46985   1.51312
 Alpha virt. eigenvalues --    1.52212   1.53538   1.56013   1.56639   1.57694
 Alpha virt. eigenvalues --    1.59029   1.59869   1.60750   1.62144   1.63367
 Alpha virt. eigenvalues --    1.64635   1.65893   1.68177   1.68891   1.70673
 Alpha virt. eigenvalues --    1.73538   1.75362   1.76879   1.78488   1.79224
 Alpha virt. eigenvalues --    1.80114   1.80738   1.81049   1.82129   1.83455
 Alpha virt. eigenvalues --    1.84187   1.84936   1.85706   1.86430   1.86816
 Alpha virt. eigenvalues --    1.87018   1.87406   1.88126   1.88582   1.88796
 Alpha virt. eigenvalues --    1.89700   1.90332   1.91059   1.92014   1.93255
 Alpha virt. eigenvalues --    1.95196   1.95866   1.96489   1.98979   1.99719
 Alpha virt. eigenvalues --    2.00461   2.01049   2.01399   2.02179   2.03060
 Alpha virt. eigenvalues --    2.04231   2.04521   2.04609   2.05823   2.06580
 Alpha virt. eigenvalues --    2.07475   2.08165   2.08707   2.09105   2.11799
 Alpha virt. eigenvalues --    2.12647   2.13177   2.13672   2.14325   2.15927
 Alpha virt. eigenvalues --    2.16141   2.17648   2.19078   2.19494   2.21523
 Alpha virt. eigenvalues --    2.22337   2.23496   2.24713   2.25229   2.25346
 Alpha virt. eigenvalues --    2.26479   2.27233   2.28159   2.28909   2.29014
 Alpha virt. eigenvalues --    2.29311   2.30338   2.32042   2.33205   2.34453
 Alpha virt. eigenvalues --    2.35446   2.36591   2.39159   2.40362   2.41249
 Alpha virt. eigenvalues --    2.42731   2.44189   2.45276   2.47118   2.48260
 Alpha virt. eigenvalues --    2.49377   2.49917   2.52507   2.54402   2.58726
 Alpha virt. eigenvalues --    2.60497   2.61999   2.63606   2.63781   2.66690
 Alpha virt. eigenvalues --    2.69574   2.73186   2.73712   2.74495   2.76660
 Alpha virt. eigenvalues --    2.77846   2.81610   2.83062   2.83964   2.88472
 Alpha virt. eigenvalues --    2.89593   2.89903   2.91253   2.93601   2.95796
 Alpha virt. eigenvalues --    2.96928   3.01211   3.02566   3.03347   3.06978
 Alpha virt. eigenvalues --    3.09192   3.14212   3.18573   3.25194   3.30722
 Alpha virt. eigenvalues --    3.33755   3.34682   3.37143   3.37910   3.40456
 Alpha virt. eigenvalues --    3.44665   3.51033   3.52768   3.57651   4.29962
 Alpha virt. eigenvalues --    4.36642   4.41627   4.46281   4.50684   4.51992
 Alpha virt. eigenvalues --    4.54215   4.56682   4.60512   4.64573   4.68892
 Alpha virt. eigenvalues --    4.73706   4.74699   4.81352   4.97763   5.96904
 Alpha virt. eigenvalues --    6.02894   6.16334   6.29455   7.03704   7.36476
          Condensed to atoms (all electrons):
               1          2          3          4          5          6
     1  C    5.684890  -0.081519  -0.033816   0.005120  -0.034372   0.002843
     2  C   -0.081519   6.401663  -0.557483  -0.036120   0.074031   0.015143
     3  C   -0.033816  -0.557483   6.901862   0.203673  -0.351042  -0.057497
     4  N    0.005120  -0.036120   0.203673   7.958786   0.059014  -0.236626
     5  C   -0.034372   0.074031  -0.351042   0.059014   7.123383   0.541726
     6  O    0.002843   0.015143  -0.057497  -0.236626   0.541726   8.556350
     7  N    0.006604  -0.033227   0.026702  -0.512125   0.165559  -0.119979
     8  C   -0.012836   0.015418  -0.315381  -0.165708  -0.387928  -0.165770
     9  C    0.008242   0.006528   0.053112   0.272363   0.739088   0.235654
    10  C   -0.010079   0.004443  -0.191954  -0.189360  -1.771705  -0.146570
    11  C    0.000200  -0.003674   0.034971  -0.037887   0.635511   0.042553
    12  C   -0.000675   0.000108  -0.064393   0.008584  -0.826330   0.004779
    13  C   -0.000017   0.006376  -0.026501   0.065707  -0.346382  -0.008101
    14  H    0.416431  -0.096674   0.032763   0.000710  -0.001735   0.000005
    15  H    0.419804  -0.054591  -0.015169   0.000138  -0.002039  -0.000090
    16  H    0.421237  -0.062926  -0.009841   0.000015  -0.000657  -0.000020
    17  H   -0.037087   0.413606  -0.061355   0.001862  -0.000521   0.000032
    18  H   -0.039323   0.449223  -0.086671   0.005068  -0.013037  -0.000436
    19  H    0.012978  -0.132957   0.496075  -0.123374   0.016164   0.008571
    20  H   -0.013092   0.002375   0.380404  -0.015550  -0.019814  -0.005456
    21  H    0.004632   0.016064  -0.092897   0.260029   0.042214   0.010151
    22  H    0.000015  -0.000243   0.002347   0.001617   0.016173  -0.008444
    23  H    0.000001   0.000016  -0.000675  -0.000352  -0.021187   0.000094
    24  H   -0.000000   0.000000   0.000005   0.000006   0.001185  -0.000001
    25  C    0.000053   0.001349  -0.000584   0.005929  -0.041144  -0.011418
    26  C   -0.000026   0.000146  -0.004571   0.005923  -0.193993  -0.001522
    27  F   -0.000000   0.000000   0.000003   0.000002   0.000344   0.000003
    28  F    0.000000  -0.000000  -0.000003   0.000001  -0.000375   0.000001
    29  F    0.000000  -0.000000   0.000002   0.000001   0.000511  -0.000003
    30  F    0.000000   0.000004  -0.000247  -0.000046  -0.002185  -0.000957
    31  F   -0.000000   0.000001  -0.000070  -0.000019  -0.004472  -0.000115
    32  F    0.000000  -0.000002   0.000150   0.000004   0.008881   0.000098
               7          8          9         10         11         12
     1  C    0.006604  -0.012836   0.008242  -0.010079   0.000200  -0.000675
     2  C   -0.033227   0.015418   0.006528   0.004443  -0.003674   0.000108
     3  C    0.026702  -0.315381   0.053112  -0.191954   0.034971  -0.064393
     4  N   -0.512125  -0.165708   0.272363  -0.189360  -0.037887   0.008584
     5  C    0.165559  -0.387928   0.739088  -1.771705   0.635511  -0.826330
     6  O   -0.119979  -0.165770   0.235654  -0.146570   0.042553   0.004779
     7  N    7.631015   0.537680  -0.219491  -0.042170   0.026805   0.029715
     8  C    0.537680  18.571611  -0.781659  -5.308386   2.261353  -2.946851
     9  C   -0.219491  -0.781659  16.895825  -8.858789   3.051786  -3.852957
    10  C   -0.042170  -5.308386  -8.858789  23.429205  -4.096337   0.901093
    11  C    0.026805   2.261353   3.051786  -4.096337  20.943655  -4.670744
    12  C    0.029715  -2.946851  -3.852957   0.901093  -4.670744  30.200018
    13  C   -0.029122  -3.126970  -1.385350   0.776184  -9.814248  -8.308205
    14  H    0.000010  -0.000045  -0.000009   0.000001   0.000000  -0.000000
    15  H   -0.000039   0.000016  -0.000097   0.000020   0.000001  -0.000000
    16  H    0.000058  -0.000014   0.000056  -0.000025  -0.000001   0.000000
    17  H    0.001345  -0.000475   0.000787  -0.000455  -0.000011   0.000002
    18  H   -0.002627  -0.002107  -0.000812   0.000564   0.000041  -0.000007
    19  H    0.016966   0.003323  -0.004733  -0.001758   0.000199  -0.000245
    20  H   -0.011727  -0.006251   0.006984  -0.000198  -0.000138   0.000111
    21  H    0.012398   0.000200   0.020345  -0.026138  -0.002159  -0.000097
    22  H   -0.003509  -0.162985   0.395499   0.014140  -0.022242   0.022816
    23  H   -0.009401   0.043197   0.037599   0.349767  -0.119922  -0.016586
    24  H    0.000474  -0.026914  -0.013486  -0.027549   0.306268   0.016963
    25  C    0.016828  -1.379482   1.132600   0.923423  -0.086326  -2.246958
    26  C    0.011583  -0.793096  -1.837333   0.389754  -2.392744  -1.077752
    27  F   -0.000004   0.012114   0.041675   0.007927  -0.055246   0.004545
    28  F   -0.000083  -0.000949   0.002947  -0.007598   0.020049   0.256360
    29  F    0.000048  -0.000536   0.006302   0.095402   0.055203  -0.055716
    30  F   -0.000502   0.099002   0.060843  -0.007608   0.017090  -0.006667
    31  F    0.000216   0.025591  -0.054806   0.029460  -0.050942  -0.118722
    32  F    0.000264  -0.000769   0.003462  -0.032912   0.055324  -0.084653
              13         14         15         16         17         18
     1  C   -0.000017   0.416431   0.419804   0.421237  -0.037087  -0.039323
     2  C    0.006376  -0.096674  -0.054591  -0.062926   0.413606   0.449223
     3  C   -0.026501   0.032763  -0.015169  -0.009841  -0.061355  -0.086671
     4  N    0.065707   0.000710   0.000138   0.000015   0.001862   0.005068
     5  C   -0.346382  -0.001735  -0.002039  -0.000657  -0.000521  -0.013037
     6  O   -0.008101   0.000005  -0.000090  -0.000020   0.000032  -0.000436
     7  N   -0.029122   0.000010  -0.000039   0.000058   0.001345  -0.002627
     8  C   -3.126970  -0.000045   0.000016  -0.000014  -0.000475  -0.002107
     9  C   -1.385350  -0.000009  -0.000097   0.000056   0.000787  -0.000812
    10  C    0.776184   0.000001   0.000020  -0.000025  -0.000455   0.000564
    11  C   -9.814248   0.000000   0.000001  -0.000001  -0.000011   0.000041
    12  C   -8.308205  -0.000000  -0.000000   0.000000   0.000002  -0.000007
    13  C   30.120466  -0.000000  -0.000004   0.000003   0.000031  -0.000016
    14  H   -0.000000   0.518231  -0.027635  -0.027994  -0.002862  -0.003023
    15  H   -0.000004  -0.027635   0.502706  -0.030870  -0.004783   0.004243
    16  H    0.000003  -0.027994  -0.030870   0.503953   0.003986  -0.004764
    17  H    0.000031  -0.002862  -0.004783   0.003986   0.508954  -0.037420
    18  H   -0.000016  -0.003023   0.004243  -0.004764  -0.037420   0.536981
    19  H   -0.000629  -0.000060  -0.000514   0.002633   0.004617  -0.006812
    20  H    0.000803  -0.000085   0.002756  -0.000226  -0.006163   0.004434
    21  H    0.001644  -0.000002   0.000000   0.000002  -0.000209   0.002303
    22  H    0.025876  -0.000000   0.000000   0.000000  -0.000000  -0.000000
    23  H    0.035863  -0.000000  -0.000000   0.000000   0.000000  -0.000000
    24  H    0.060208  -0.000000   0.000000   0.000000   0.000000   0.000000
    25  C   -1.942580   0.000000   0.000000   0.000000  -0.000001   0.000001
    26  C    0.986019  -0.000000   0.000000   0.000000  -0.000000   0.000000
    27  F   -0.056080  -0.000000   0.000000  -0.000000  -0.000000   0.000000
    28  F   -0.178756   0.000000   0.000000  -0.000000  -0.000000   0.000000
    29  F   -0.042520  -0.000000  -0.000000   0.000000   0.000000  -0.000000
    30  F   -0.169370  -0.000000  -0.000000   0.000000   0.000000  -0.000000
    31  F    0.124779   0.000000   0.000000   0.000000  -0.000000   0.000000
    32  F    0.102304   0.000000  -0.000000  -0.000000   0.000000  -0.000000
              19         20         21         22         23         24
     1  C    0.012978  -0.013092   0.004632   0.000015   0.000001  -0.000000
     2  C   -0.132957   0.002375   0.016064  -0.000243   0.000016   0.000000
     3  C    0.496075   0.380404  -0.092897   0.002347  -0.000675   0.000005
     4  N   -0.123374  -0.015550   0.260029   0.001617  -0.000352   0.000006
     5  C    0.016164  -0.019814   0.042214   0.016173  -0.021187   0.001185
     6  O    0.008571  -0.005456   0.010151  -0.008444   0.000094  -0.000001
     7  N    0.016966  -0.011727   0.012398  -0.003509  -0.009401   0.000474
     8  C    0.003323  -0.006251   0.000200  -0.162985   0.043197  -0.026914
     9  C   -0.004733   0.006984   0.020345   0.395499   0.037599  -0.013486
    10  C   -0.001758  -0.000198  -0.026138   0.014140   0.349767  -0.027549
    11  C    0.000199  -0.000138  -0.002159  -0.022242  -0.119922   0.306268
    12  C   -0.000245   0.000111  -0.000097   0.022816  -0.016586   0.016963
    13  C   -0.000629   0.000803   0.001644   0.025876   0.035863   0.060208
    14  H   -0.000060  -0.000085  -0.000002  -0.000000  -0.000000  -0.000000
    15  H   -0.000514   0.002756   0.000000   0.000000  -0.000000   0.000000
    16  H    0.002633  -0.000226   0.000002   0.000000   0.000000   0.000000
    17  H    0.004617  -0.006163  -0.000209  -0.000000   0.000000   0.000000
    18  H   -0.006812   0.004434   0.002303  -0.000000  -0.000000   0.000000
    19  H    0.558583  -0.043507   0.001292  -0.000001   0.000000  -0.000000
    20  H   -0.043507   0.503390   0.003093   0.000000  -0.000000   0.000000
    21  H    0.001292   0.003093   0.365264  -0.000000   0.000008  -0.000000
    22  H   -0.000001   0.000000  -0.000000   0.434342  -0.000126   0.000013
    23  H    0.000000  -0.000000   0.000008  -0.000126   0.508572  -0.003954
    24  H   -0.000000   0.000000  -0.000000   0.000013  -0.003954   0.500365
    25  C   -0.000043   0.000094   0.000051   0.006056   0.005544   0.006091
    26  C   -0.000012   0.000008   0.000003   0.005811  -0.001955  -0.029297
    27  F   -0.000000   0.000000   0.000000  -0.000001   0.000012   0.000230
    28  F   -0.000000   0.000000  -0.000000   0.000000   0.000004  -0.000505
    29  F   -0.000000   0.000000   0.000000   0.000014   0.000030   0.004299
    30  F   -0.000000   0.000000   0.000000   0.006371   0.000001   0.000013
    31  F   -0.000000   0.000000   0.000000   0.000403  -0.000000   0.000022
    32  F    0.000000  -0.000000  -0.000000  -0.000510   0.000000  -0.000002
              25         26         27         28         29         30
     1  C    0.000053  -0.000026  -0.000000   0.000000   0.000000   0.000000
     2  C    0.001349   0.000146   0.000000  -0.000000  -0.000000   0.000004
     3  C   -0.000584  -0.004571   0.000003  -0.000003   0.000002  -0.000247
     4  N    0.005929   0.005923   0.000002   0.000001   0.000001  -0.000046
     5  C   -0.041144  -0.193993   0.000344  -0.000375   0.000511  -0.002185
     6  O   -0.011418  -0.001522   0.000003   0.000001  -0.000003  -0.000957
     7  N    0.016828   0.011583  -0.000004  -0.000083   0.000048  -0.000502
     8  C   -1.379482  -0.793096   0.012114  -0.000949  -0.000536   0.099002
     9  C    1.132600  -1.837333   0.041675   0.002947   0.006302   0.060843
    10  C    0.923423   0.389754   0.007927  -0.007598   0.095402  -0.007608
    11  C   -0.086326  -2.392744  -0.055246   0.020049   0.055203   0.017090
    12  C   -2.246958  -1.077752   0.004545   0.256360  -0.055716  -0.006667
    13  C   -1.942580   0.986019  -0.056080  -0.178756  -0.042520  -0.169370
    14  H    0.000000  -0.000000  -0.000000   0.000000  -0.000000  -0.000000
    15  H    0.000000   0.000000   0.000000   0.000000  -0.000000  -0.000000
    16  H    0.000000   0.000000  -0.000000  -0.000000   0.000000   0.000000
    17  H   -0.000001  -0.000000  -0.000000  -0.000000   0.000000   0.000000
    18  H    0.000001   0.000000   0.000000   0.000000  -0.000000  -0.000000
    19  H   -0.000043  -0.000012  -0.000000  -0.000000  -0.000000  -0.000000
    20  H    0.000094   0.000008   0.000000   0.000000   0.000000   0.000000
    21  H    0.000051   0.000003   0.000000  -0.000000   0.000000   0.000000
    22  H    0.006056   0.005811  -0.000001   0.000000   0.000014   0.006371
    23  H    0.005544  -0.001955   0.000012   0.000004   0.000030   0.000001
    24  H    0.006091  -0.029297   0.000230  -0.000505   0.004299   0.000013
    25  C   10.220480  -2.524069   0.162287   0.013766   0.031860   0.103600
    26  C   -2.524069  11.755964  -0.010736   0.002658   0.004954   0.014447
    27  F    0.162287  -0.010736   9.300594  -0.056464  -0.042993   0.000848
    28  F    0.013766   0.002658  -0.056464   9.276206  -0.049158   0.000024
    29  F    0.031860   0.004954  -0.042993  -0.049158   9.335845   0.000089
    30  F    0.103600   0.014447   0.000848   0.000024   0.000089   9.309998
    31  F   -0.047321   0.207057  -0.009150  -0.005128   0.000871  -0.041227
    32  F    0.093238  -0.018818  -0.003519  -0.000246   0.000061  -0.047326
              31         32
     1  C   -0.000000   0.000000
     2  C    0.000001  -0.000002
     3  C   -0.000070   0.000150
     4  N   -0.000019   0.000004
     5  C   -0.004472   0.008881
     6  O   -0.000115   0.000098
     7  N    0.000216   0.000264
     8  C    0.025591  -0.000769
     9  C   -0.054806   0.003462
    10  C    0.029460  -0.032912
    11  C   -0.050942   0.055324
    12  C   -0.118722  -0.084653
    13  C    0.124779   0.102304
    14  H    0.000000   0.000000
    15  H    0.000000  -0.000000
    16  H    0.000000  -0.000000
    17  H   -0.000000   0.000000
    18  H    0.000000  -0.000000
    19  H   -0.000000   0.000000
    20  H    0.000000  -0.000000
    21  H    0.000000  -0.000000
    22  H    0.000403  -0.000510
    23  H   -0.000000   0.000000
    24  H    0.000022  -0.000002
    25  C   -0.047321   0.093238
    26  C    0.207057  -0.018818
    27  F   -0.009150  -0.003519
    28  F   -0.005128  -0.000246
    29  F    0.000871   0.000061
    30  F   -0.041227  -0.047326
    31  F    9.299371  -0.056041
    32  F   -0.056041   9.249428
 Mulliken charges:
               1
     1  C   -0.720207
     2  C   -0.347078
     3  C   -0.261918
     4  N   -0.537386
     5  C    0.595134
     6  O   -0.654999
     7  N   -0.500264
     8  C    0.015606
     9  C    0.037828
    10  C   -0.201790
    11  C   -0.098389
    12  C   -1.167536
    13  C   -0.871412
    14  H    0.191973
    15  H    0.206151
    16  H    0.205394
    17  H    0.216118
    18  H    0.194196
    19  H    0.193244
    20  H    0.217755
    21  H    0.381808
    22  H    0.266569
    23  H    0.193451
    24  H    0.205565
    25  C    1.556674
    26  C    1.501596
    27  F   -0.296394
    28  F   -0.272753
    29  F   -0.344566
    30  F   -0.336198
    31  F   -0.299759
    32  F   -0.268414
 Sum of Mulliken charges =  -1.00000
 Mulliken charges with hydrogens summed into heavy atoms:
               1
     1  C   -0.116689
     2  C    0.063236
     3  C    0.149081
     4  N   -0.155578
     5  C    0.595134
     6  O   -0.654999
     7  N   -0.500264
     8  C    0.015606
     9  C    0.304396
    10  C   -0.008339
    11  C    0.107176
    12  C   -1.167536
    13  C   -0.871412
    25  C    1.556674
    26  C    1.501596
    27  F   -0.296394
    28  F   -0.272753
    29  F   -0.344566
    30  F   -0.336198
    31  F   -0.299759
    32  F   -0.268414
 Electronic spatial extent (au):  <R**2>=           9472.1512
 Charge=             -1.0000 electrons
 Dipole moment (field-independent basis, Debye):
    X=             -0.8187    Y=             -1.3485    Z=             -0.6418  Tot=              1.7031
 Quadrupole moment (field-independent basis, Debye-Ang):
   XX=           -164.9642   YY=           -132.1560   ZZ=           -129.7158
   XY=              1.2682   XZ=              1.5370   YZ=             -2.8423
 Traceless Quadrupole moment (field-independent basis, Debye-Ang):
   XX=            -22.6855   YY=             10.1227   ZZ=             12.5628
   XY=              1.2682   XZ=              1.5370   YZ=             -2.8423
 Octapole moment (field-independent basis, Debye-Ang**2):
  XXX=             58.2406  YYY=             21.4540  ZZZ=              3.3799  XYY=             32.3235
  XXY=             -0.6765  XXZ=             -3.7300  XZZ=             38.6089  YZZ=             12.8218
  YYZ=             -1.1953  XYZ=              7.2220
 Hexadecapole moment (field-independent basis, Debye-Ang**3):
 XXXX=         -11160.7331 YYYY=          -1409.6407 ZZZZ=           -339.5156 XXXY=            166.4350
 XXXZ=             45.3930 YYYX=              6.1145 YYYZ=             -6.8006 ZZZX=              0.8002
 ZZZY=            -13.5782 XXYY=          -2001.4219 XXZZ=          -1832.1490 YYZZ=           -308.4859
 XXYZ=            -20.2340 YYXZ=              6.0633 ZZXY=             13.0075
 N-N= 1.758197012892D+03 E-N=-6.469913316962D+03  KE= 1.237689362154D+03
 Calling FoFJK, ICntrl=      2127 FMM=F ISym2X=0 I1Cent= 0 IOpClX= 0 NMat=1 NMatS=1 NMatT=0.
 ***** Axes restored to original set *****
 -------------------------------------------------------------------
 Center     Atomic                   Forces (Hartrees/Bohr)
 Number     Number              X              Y              Z
 -------------------------------------------------------------------
      1        6          -0.001110009   -0.001340040   -0.000103146
      2        6           0.000501495    0.001161632   -0.000361489
      3        6           0.007626533   -0.001508805   -0.001610714
      4        7          -0.015298529   -0.008021724   -0.002018233
      5        6           0.011158957    0.034224830    0.007983364
      6        8          -0.002657781   -0.019911293   -0.006227278
      7        7           0.010083089   -0.003461923    0.000632496
      8        6          -0.016858353   -0.006540210   -0.000898524
      9        6           0.003525905    0.004673415   -0.001259606
     10        6           0.004882986   -0.001885983    0.000637379
     11        6          -0.003122621   -0.000229871   -0.000619330
     12        6           0.005741150    0.000243863    0.001439755
     13        6          -0.003890923   -0.000177390   -0.000925909
     14        1          -0.001092038   -0.000050101    0.000039591
     15        1           0.000232472    0.000047292    0.000277596
     16        1          -0.000002491    0.000390640   -0.000045163
     17        1           0.000496558   -0.000411069   -0.000178794
     18        1          -0.000709681   -0.001055468    0.000111710
     19        1          -0.000403002    0.001380233    0.001023959
     20        1           0.001664726    0.000777725    0.000718998
     21        1           0.002626267    0.001393624    0.000035252
     22        1          -0.001761878   -0.000565593    0.001839267
     23        1          -0.001920812    0.000470861   -0.000333214
     24        1           0.000684849    0.000462695    0.000212922
     25        6          -0.001158456   -0.002469816    0.002467957
     26        6          -0.007978352    0.002530658   -0.002028460
     27        9           0.001617923    0.000053159    0.000395500
     28        9           0.002597800   -0.000350223   -0.000831196
     29        9           0.003375877   -0.002767423    0.002100856
     30        9          -0.000295590    0.001065046   -0.001021552
     31        9           0.001183259    0.000883490   -0.001378806
     32        9           0.000260671    0.000987772   -0.000075185
 -------------------------------------------------------------------
 Cartesian Forces:  Max     0.034224830 RMS     0.005495133

 GradGradGradGradGradGradGradGradGradGradGradGradGradGradGradGradGradGrad
 Berny optimization.
 FormGI is forming the generalized inverse of G from B-inverse, IUseBI=4.
 GSVD:  received Info=                   1 from GESDD.
 Internal  Forces:  Max     0.020690710 RMS     0.002640913
 Search for a local minimum.
 Step number   1 out of a maximum of  165
 All quantities printed in internal units (Hartrees-Bohrs-Radians)
 Mixed Optimization -- RFO/linear search
 Second derivative matrix not updated -- first step.
 ITU=  0
     Eigenvalues ---    0.00426   0.00479   0.00651   0.00805   0.00939
     Eigenvalues ---    0.01519   0.01550   0.01874   0.01903   0.01965
     Eigenvalues ---    0.02012   0.02079   0.02084   0.02090   0.02119
     Eigenvalues ---    0.02127   0.02172   0.02215   0.02385   0.03727
     Eigenvalues ---    0.04429   0.04932   0.05544   0.05575   0.05585
     Eigenvalues ---    0.08168   0.09185   0.10347   0.10463   0.10566
     Eigenvalues ---    0.10663   0.12067   0.12690   0.14126   0.15997
     Eigenvalues ---    0.16000   0.16000   0.16000   0.16000   0.16000
     Eigenvalues ---    0.21896   0.21914   0.22361   0.22554   0.23460
     Eigenvalues ---    0.24597   0.24931   0.24984   0.24994   0.24998
     Eigenvalues ---    0.25000   0.25000   0.25000   0.25000   0.25000
     Eigenvalues ---    0.25000   0.25000   0.25000   0.29826   0.30204
     Eigenvalues ---    0.31479   0.32689   0.33603   0.33926   0.34031
     Eigenvalues ---    0.34145   0.34153   0.34276   0.34325   0.35250
     Eigenvalues ---    0.35358   0.35857   0.37354   0.40137   0.41118
     Eigenvalues ---    0.43907   0.44523   0.45245   0.46451   0.48136
     Eigenvalues ---    0.48371   0.51532   0.54038   0.54938   0.55074
     Eigenvalues ---    0.55531   0.55532   0.55598   0.56239   0.78340
 RFO step:  Lambda=-3.78950172D-03 EMin= 4.26227391D-03
 Linear search not attempted -- first point.
 Iteration  1 RMS(Cart)=  0.09747658 RMS(Int)=  0.00499223
 Iteration  2 RMS(Cart)=  0.00952699 RMS(Int)=  0.00004928
 Iteration  3 RMS(Cart)=  0.00007131 RMS(Int)=  0.00004075
 Iteration  4 RMS(Cart)=  0.00000000 RMS(Int)=  0.00004075
 Variable       Old X    -DE/DX   Delta X   Delta X   Delta X     New X
                                 (Linear)    (Quad)   (Total)
    R1        2.88312   0.00144   0.00000   0.00477   0.00477   2.88789
    R2        2.06785   0.00084   0.00000   0.00241   0.00241   2.07027
    R3        2.07085  -0.00011   0.00000  -0.00032  -0.00032   2.07053
    R4        2.07072  -0.00000   0.00000  -0.00001  -0.00001   2.07072
    R5        2.87559   0.00209   0.00000   0.00685   0.00685   2.88244
    R6        2.07279   0.00023   0.00000   0.00068   0.00068   2.07346
    R7        2.07455   0.00090   0.00000   0.00261   0.00261   2.07716
    R8        2.75316  -0.00660   0.00000  -0.01750  -0.01750   2.73566
    R9        2.08005   0.00122   0.00000   0.00360   0.00360   2.08365
   R10        2.06867   0.00018   0.00000   0.00053   0.00053   2.06920
   R11        2.61546   0.00853   0.00000   0.01751   0.01751   2.63297
   R12        1.91692  -0.00123   0.00000  -0.00269  -0.00269   1.91422
   R13        2.38823  -0.02069   0.00000  -0.02628  -0.02628   2.36195
   R14        2.54662   0.00175   0.00000   0.00313   0.00313   2.54975
   R15        2.58350  -0.01349   0.00000  -0.02599  -0.02599   2.55751
   R16        2.68717   0.00328   0.00000   0.00782   0.00783   2.69500
   R17        2.67324   0.00169   0.00000   0.00377   0.00377   2.67701
   R18        2.62149  -0.00030   0.00000  -0.00046  -0.00045   2.62104
   R19        2.04306   0.00031   0.00000   0.00086   0.00086   2.04392
   R20        2.61520  -0.00057   0.00000  -0.00133  -0.00134   2.61385
   R21        2.05270  -0.00011   0.00000  -0.00030  -0.00030   2.05240
   R22        2.64225   0.00117   0.00000   0.00243   0.00243   2.64467
   R23        2.05097   0.00025   0.00000   0.00071   0.00071   2.05168
   R24        2.65984   0.00384   0.00000   0.00868   0.00868   2.66852
   R25        2.82900  -0.00053   0.00000  -0.00159  -0.00159   2.82741
   R26        2.85108   0.00044   0.00000   0.00139   0.00139   2.85247
   R27        2.54047   0.00118   0.00000   0.00209   0.00209   2.54256
   R28        2.54605   0.00183   0.00000   0.00327   0.00327   2.54932
   R29        2.55187   0.00057   0.00000   0.00103   0.00103   2.55290
   R30        2.55066   0.00043   0.00000   0.00078   0.00078   2.55145
   R31        2.55997   0.00192   0.00000   0.00353   0.00353   2.56350
   R32        2.54663   0.00472   0.00000   0.00844   0.00844   2.55507
    A1        1.94070   0.00114   0.00000   0.00872   0.00871   1.94941
    A2        1.93571  -0.00039   0.00000  -0.00350  -0.00351   1.93221
    A3        1.93675   0.00001   0.00000  -0.00060  -0.00062   1.93613
    A4        1.88304  -0.00025   0.00000  -0.00030  -0.00029   1.88275
    A5        1.88300  -0.00035   0.00000   0.00000  -0.00001   1.88299
    A6        1.88232  -0.00020   0.00000  -0.00460  -0.00462   1.87770
    A7        1.94461   0.00164   0.00000   0.00888   0.00887   1.95349
    A8        1.92023  -0.00005   0.00000   0.00127   0.00127   1.92150
    A9        1.91668  -0.00107   0.00000  -0.00656  -0.00659   1.91009
   A10        1.90633  -0.00086   0.00000  -0.00413  -0.00414   1.90219
   A11        1.90661   0.00022   0.00000   0.00484   0.00485   1.91147
   A12        1.86771   0.00005   0.00000  -0.00483  -0.00483   1.86288
   A13        1.93231  -0.00068   0.00000  -0.00128  -0.00130   1.93101
   A14        1.91293   0.00035   0.00000   0.00721   0.00716   1.92009
   A15        1.91312   0.00146   0.00000   0.00870   0.00868   1.92179
   A16        1.93461   0.00088   0.00000   0.00958   0.00956   1.94417
   A17        1.90161  -0.00118   0.00000  -0.01475  -0.01473   1.88688
   A18        1.86806  -0.00083   0.00000  -0.00979  -0.00979   1.85827
   A19        2.09565  -0.00414   0.00000  -0.01842  -0.01840   2.07725
   A20        2.01038   0.00404   0.00000   0.02297   0.02293   2.03331
   A21        1.98697  -0.00043   0.00000  -0.00821  -0.00815   1.97882
   A22        2.06309  -0.00086   0.00000  -0.00346  -0.00348   2.05961
   A23        1.98663  -0.00716   0.00000  -0.02829  -0.02832   1.95831
   A24        2.23332   0.00802   0.00000   0.03152   0.03149   2.26480
   A25        2.10726  -0.00424   0.00000  -0.01672  -0.01672   2.09054
   A26        2.20122   0.00038   0.00000   0.00171   0.00170   2.20292
   A27        2.05672   0.00016   0.00000   0.00082   0.00080   2.05752
   A28        2.02321  -0.00053   0.00000  -0.00207  -0.00207   2.02114
   A29        2.12594   0.00016   0.00000   0.00122   0.00114   2.12709
   A30        2.07715  -0.00198   0.00000  -0.01207  -0.01217   2.06498
   A31        2.07994   0.00184   0.00000   0.01127   0.01116   2.09110
   A32        2.13130  -0.00002   0.00000  -0.00076  -0.00078   2.13052
   A33        2.06637  -0.00204   0.00000  -0.01215  -0.01215   2.05423
   A34        2.08550   0.00207   0.00000   0.01294   0.01295   2.09844
   A35        2.11795   0.00153   0.00000   0.00617   0.00615   2.12410
   A36        2.07975   0.00003   0.00000   0.00178   0.00179   2.08154
   A37        2.08548  -0.00156   0.00000  -0.00796  -0.00795   2.07753
   A38        2.05412  -0.00138   0.00000  -0.00551  -0.00551   2.04861
   A39        2.06399  -0.00114   0.00000  -0.00441  -0.00441   2.05958
   A40        2.16462   0.00251   0.00000   0.00998   0.00998   2.17460
   A41        2.11326   0.00025   0.00000   0.00137   0.00138   2.11464
   A42        2.03910  -0.00018   0.00000  -0.00090  -0.00091   2.03819
   A43        2.13057  -0.00008   0.00000  -0.00052  -0.00053   2.13004
   A44        1.96178   0.00092   0.00000   0.00329   0.00329   1.96507
   A45        1.96709   0.00072   0.00000   0.00221   0.00221   1.96930
   A46        1.96231   0.00118   0.00000   0.00561   0.00560   1.96791
   A47        1.85358  -0.00133   0.00000  -0.00698  -0.00698   1.84660
   A48        1.85008  -0.00087   0.00000  -0.00232  -0.00234   1.84774
   A49        1.86033  -0.00091   0.00000  -0.00297  -0.00298   1.85735
   A50        1.97681   0.00219   0.00000   0.01055   0.01050   1.98730
   A51        1.97883   0.00235   0.00000   0.00964   0.00959   1.98843
   A52        1.95221   0.00029   0.00000  -0.00116  -0.00115   1.95106
   A53        1.85030  -0.00162   0.00000  -0.00242  -0.00252   1.84778
   A54        1.85238  -0.00151   0.00000  -0.00659  -0.00659   1.84580
   A55        1.84269  -0.00229   0.00000  -0.01247  -0.01246   1.83023
    D1        3.13842  -0.00026   0.00000  -0.00286  -0.00285   3.13557
    D2        1.02150  -0.00024   0.00000  -0.00441  -0.00441   1.01708
    D3       -1.02989   0.00036   0.00000   0.00465   0.00463  -1.02525
    D4        1.04306  -0.00045   0.00000  -0.00595  -0.00593   1.03713
    D5       -1.07386  -0.00042   0.00000  -0.00750  -0.00749  -1.08135
    D6       -3.12525   0.00018   0.00000   0.00156   0.00155  -3.12369
    D7       -1.04876   0.00006   0.00000   0.00256   0.00257  -1.04619
    D8        3.11750   0.00008   0.00000   0.00101   0.00101   3.11851
    D9        1.06611   0.00068   0.00000   0.01007   0.01006   1.07617
   D10        3.12944   0.00051   0.00000   0.01751   0.01754  -3.13621
   D11        0.98998  -0.00039   0.00000   0.00142   0.00143   0.99141
   D12       -1.05543  -0.00045   0.00000   0.00399   0.00399  -1.05144
   D13       -1.02875   0.00094   0.00000   0.02211   0.02212  -1.00663
   D14        3.11498   0.00004   0.00000   0.00601   0.00601   3.12099
   D15        1.06957  -0.00002   0.00000   0.00859   0.00857   1.07814
   D16        1.00870   0.00064   0.00000   0.01671   0.01671   1.02541
   D17       -1.13076  -0.00026   0.00000   0.00062   0.00060  -1.13016
   D18        3.10702  -0.00031   0.00000   0.00319   0.00316   3.11018
   D19       -3.07806   0.00015   0.00000  -0.02114  -0.02109  -3.09915
   D20       -0.59886  -0.00066   0.00000  -0.02902  -0.02907  -0.62793
   D21       -0.95128   0.00074   0.00000  -0.00633  -0.00626  -0.95755
   D22        1.52792  -0.00008   0.00000  -0.01421  -0.01424   1.51368
   D23        1.09994  -0.00047   0.00000  -0.02163  -0.02160   1.07835
   D24       -2.70404  -0.00129   0.00000  -0.02951  -0.02957  -2.73362
   D25       -0.35548   0.00059   0.00000   0.01011   0.01011  -0.34537
   D26        2.76943   0.00031   0.00000  -0.00284  -0.00270   2.76673
   D27       -2.84293  -0.00022   0.00000   0.00679   0.00665  -2.83628
   D28        0.28197  -0.00050   0.00000  -0.00616  -0.00616   0.27582
   D29        2.92616   0.00199   0.00000   0.07161   0.07174   2.99790
   D30       -0.23408   0.00155   0.00000   0.05664   0.05651  -0.17757
   D31       -0.41255   0.00344   0.00000   0.13754   0.13753  -0.27502
   D32        2.80064   0.00326   0.00000   0.12956   0.12957   2.93021
   D33       -3.08744   0.00015   0.00000   0.00741   0.00743  -3.08000
   D34        0.03507   0.00078   0.00000   0.03329   0.03316   0.06823
   D35       -0.01624   0.00035   0.00000   0.01535   0.01535  -0.00088
   D36        3.10627   0.00098   0.00000   0.04123   0.04108  -3.13584
   D37        3.10450  -0.00012   0.00000  -0.00729  -0.00733   3.09717
   D38       -0.04315  -0.00001   0.00000  -0.00178  -0.00184  -0.04499
   D39        0.02720  -0.00032   0.00000  -0.01459  -0.01461   0.01259
   D40       -3.12045  -0.00021   0.00000  -0.00909  -0.00912  -3.12957
   D41       -0.01300  -0.00014   0.00000  -0.00556  -0.00553  -0.01853
   D42       -3.13094  -0.00011   0.00000  -0.00285  -0.00280  -3.13375
   D43       -3.13548  -0.00073   0.00000  -0.03123  -0.03138   3.11633
   D44        0.02977  -0.00070   0.00000  -0.02853  -0.02866   0.00111
   D45       -0.00901   0.00008   0.00000   0.00393   0.00395  -0.00506
   D46        3.12785   0.00001   0.00000   0.00173   0.00176   3.12960
   D47        3.13871  -0.00002   0.00000  -0.00155  -0.00159   3.13711
   D48       -0.00762  -0.00009   0.00000  -0.00375  -0.00379  -0.01141
   D49       -0.02080   0.00016   0.00000   0.00665   0.00666  -0.01414
   D50       -3.13122   0.00007   0.00000   0.00445   0.00446  -3.12676
   D51        3.12554   0.00022   0.00000   0.00883   0.00882   3.13437
   D52        0.01512   0.00014   0.00000   0.00663   0.00662   0.02175
   D53        0.03155  -0.00013   0.00000  -0.00585  -0.00587   0.02568
   D54       -3.13495  -0.00017   0.00000  -0.00870  -0.00874   3.13950
   D55        3.14001  -0.00012   0.00000  -0.00381  -0.00381   3.13620
   D56       -0.02648  -0.00016   0.00000  -0.00666  -0.00669  -0.03317
   D57       -2.43255   0.00055   0.00000   0.01017   0.01021  -2.42233
   D58        1.74117  -0.00075   0.00000  -0.00197  -0.00200   1.73917
   D59       -0.34011   0.00036   0.00000   0.00825   0.00826  -0.33185
   D60        0.74235   0.00055   0.00000   0.00814   0.00817   0.75051
   D61       -1.36712  -0.00076   0.00000  -0.00400  -0.00405  -1.37117
   D62        2.83478   0.00036   0.00000   0.00622   0.00622   2.84100
   D63       -0.33032  -0.00030   0.00000  -0.00239  -0.00241  -0.33273
   D64       -2.42430   0.00025   0.00000   0.00272   0.00271  -2.42159
   D65        1.75572   0.00006   0.00000   0.00090   0.00090   1.75662
   D66        2.83518  -0.00027   0.00000   0.00032   0.00032   2.83549
   D67        0.74120   0.00029   0.00000   0.00543   0.00544   0.74663
   D68       -1.36196   0.00009   0.00000   0.00361   0.00362  -1.35834
         Item               Value     Threshold  Converged?
 Maximum Force            0.020691     0.000450     NO 
 RMS     Force            0.002641     0.000300     NO 
 Maximum Displacement     0.489976     0.001800     NO 
 RMS     Displacement     0.104177     0.001200     NO 
 Predicted change in Energy=-2.013131D-03
 GradGradGradGradGradGradGradGradGradGradGradGradGradGradGradGradGradGrad

                          Input orientation:                          
 ---------------------------------------------------------------------
 Center     Atomic      Atomic             Coordinates (Angstroms)
 Number     Number       Type             X           Y           Z
 ---------------------------------------------------------------------
      1          6           0       -1.850418    1.912689    0.140350
      2          6           0       -0.499851    1.287372   -0.206588
      3          6           0        0.657527    2.241588    0.070093
      4          7           0        1.920991    1.624711   -0.274587
      5          6           0        3.101671    2.327118   -0.042368
      6          8           0        3.029834    3.567693    0.091931
      7          7           0        4.173156    1.510999    0.037637
      8          6           0        5.417904    2.039375    0.092780
      9          6           0        5.779757    3.379429   -0.234598
     10          6           0        6.488653    1.178137    0.437093
     11          6           0        7.800912    1.614255    0.468650
     12          6           0        8.145015    2.934069    0.155143
     13          6           0        7.098858    3.807586   -0.214459
     14          1           0       -2.679229    1.226464   -0.065487
     15          1           0       -2.016327    2.825006   -0.443315
     16          1           0       -1.894712    2.185435    1.200713
     17          1           0       -0.479008    0.998282   -1.264844
     18          1           0       -0.363072    0.365443    0.376122
     19          1           0        0.640076    2.559902    1.125625
     20          1           0        0.547659    3.150730   -0.530204
     21          1           0        2.002581    0.631054   -0.095468
     22          1           0        4.993170    4.073331   -0.498483
     23          1           0        6.248990    0.147258    0.680872
     24          1           0        8.584988    0.917882    0.749786
     25          6           0        7.350372    5.252645   -0.570853
     26          6           0        9.592168    3.311699    0.197127
     27          9           0        9.824894    4.523044    0.746156
     28          9           0       10.190241    3.335084   -1.020238
     29          9           0       10.319133    2.433387    0.923919
     30          9           0        6.323880    5.805580   -1.242311
     31          9           0        8.434479    5.416938   -1.356750
[...]
 8,-0.00039340,0.00413174,-0.00280025,0.00091968,-0.00071219,0.00187623
 ,-0.00046460,-0.00596891,0.00007922,-0.00020770,0.00437404,0.00198717,
 -0.00047497,-0.00370958,-0.00201850,0.00124334,-0.00274651,0.00049467,
 0.00063255,-0.00193186,0.00310295,-0.00325747,-0.01590084,-0.02452546,
 -0.01038723,0.00519693,-0.00107784,0.00108087,-0.00006906,-0.00000776,
 -0.00001640,0.00000795,0.00002778,-0.00000219,-0.00000219,0.00000837,0
 .00002476,0.00002249,0.00000362,0.00000251,-0.00000183,-0.00001402,-0.
 00000282,-0.00021399,0.00005845,0.00015067,0.00004398,0.00004341,-0.00
 001887,0.00008708,0.00011973,0.00005810,-0.00024778,-0.00017675,0.0000
 7249,-0.00045677,-0.00008732,0.00031079,0.00059211,0.00062631,-0.00054
 070,-0.00959123,-0.00716882,-0.00417687,-0.05552569,-0.22639491,-0.065
 77161,0.04811936,0.34696822,-0.00000090,-0.00000439,-0.00000381,-0.000
 00556,0.00000452,0.00000126,0.00005348,-0.00002914,-0.00002318,-0.0001
 2539,-0.00001703,0.00000153,0.00021387,-0.00006197,0.00000111,-0.00010
 018,0.00008211,0.00003793,-0.00023571,0.00004869,0.00008805,0.00014441
 ,0.00022056,-0.00014525,-0.00024592,-0.00000164,-0.00013045,0.00059833
 ,-0.00082752,0.00012402,-0.00269906,0.00030070,-0.00023316,0.00041257,
 -0.00824970,0.00813810,0.00101158,0.00043215,0.00083849,-0.00000462,0.
 00000016,-0.00000137,0.00000045,0.00000217,-0.00000197,-0.00000207,0.0
 0000016,0.00000655,0.00000271,0.00000124,0.00000652,0.00000022,-0.0000
 0031,-0.00000096,-0.00002049,0.00000283,0.00002378,0.00000507,0.000002
 27,-0.00000483,0.00001034,0.00000003,-0.00001261,0.00001097,-0.0000410
 3,-0.00009880,-0.00021961,-0.00006107,-0.00000463,0.00000255,-0.000030
 96,-0.00003316,0.00091879,-0.00146294,-0.00506307,-0.02609194,-0.06221
 899,-0.09540863,0.02403759,0.11023557,0.12915739,-0.00004475,-0.000083
 58,-0.00004870,-0.00006636,0.00013134,0.00010090,0.00078221,-0.0004146
 2,0.00010478,-0.00249789,-0.00066560,-0.00066917,0.00582274,-0.0033992
 6,0.00142569,-0.00099731,0.00218073,-0.00065251,-0.00833772,-0.0002782
 0,-0.00004533,0.00628477,0.00289218,-0.00029434,-0.00397472,-0.0043542
 3,-0.00011784,-0.00478968,-0.00008875,-0.00193803,0.00073081,0.0070965
 0,0.00077366,-0.02370990,-0.00749900,0.03821912,0.00662408,-0.00164695
 ,0.00113263,-0.00010618,-0.00001619,-0.00002731,0.00001588,0.00003104,
 0.00000490,0.00000172,0.00001531,0.00002926,0.00003073,0.00000851,-0.0
 0000950,-0.00000663,-0.00003716,0.00000307,-0.00029175,0.00008255,0.00
 019521,0.00007350,0.00005950,-0.00001676,0.00010516,0.00019807,0.00011
 752,-0.00016318,-0.00021854,-0.00021858,-0.00036156,-0.00034527,-0.000
 32076,0.00019838,-0.00028173,0.00099905,-0.00267305,-0.00314051,0.0024
 0927,-0.11088413,-0.00295691,0.07212426,0.01400000,0.00515183,0.002817
 47,0.10760452,-0.00000965,-0.00002143,-0.00001007,-0.00001713,0.000028
 68,0.00002290,0.00018650,-0.00010372,0.00002275,-0.00058205,-0.0001295
 9,-0.00016341,0.00140559,-0.00096377,0.00036467,-0.00020784,0.00063073
 ,-0.00015143,-0.00202559,-0.00006108,0.00003184,0.00130684,0.00134999,
 -0.00027596,-0.00182958,-0.00106382,-0.00018240,-0.00068001,0.00082890
 ,-0.00060388,0.00182963,0.00050926,-0.00090257,-0.00933253,0.01068669,
 0.00717745,0.00150536,-0.00107053,0.00200742,-0.00002279,-0.00000259,-
 0.00000525,0.00000246,0.00000972,-0.00000057,-0.00000062,0.00000290,0.
 00000738,0.00000767,0.00000056,-0.00000002,-0.00000045,-0.00000370,-0.
 00000129,-0.00007099,0.00001861,0.00004992,0.00001245,0.00001317,-0.00
 000581,0.00002701,0.00004264,0.00001802,-0.00011494,-0.00019783,-0.000
 22780,0.00005926,-0.00000679,0.00007267,0.00017731,0.00027195,0.000048
 44,-0.00427560,-0.00218376,0.00180752,-0.00208056,-0.06911808,0.006927
 86,0.01207490,-0.01499169,-0.05482550,-0.00439605,0.08096614,0.0000335
 9,0.00006034,0.00003289,0.00004651,-0.00009079,-0.00008165,-0.00053074
 ,0.00028453,-0.00010046,0.00173672,0.00046347,0.00050610,-0.00406747,0
 .00238842,-0.00102704,0.00071821,-0.00153419,0.00053166,0.00578579,0.0
 0018153,0.00017742,-0.00420890,-0.00220886,0.00009778,0.00335313,0.002
 60592,0.00005788,0.00324276,-0.00028546,0.00121709,-0.00048868,-0.0036
 7771,0.00001430,0.02070759,0.00436846,-0.01219323,-0.00415597,0.001703
 34,-0.00094315,0.00007589,0.00001235,0.00001849,-0.00001086,-0.0000240
 5,-0.00000559,-0.00000451,-0.00001080,-0.00001306,-0.00002010,-0.00000
 433,0.00001754,0.00000453,0.00002329,-0.00000179,0.00019462,-0.0000565
 7,-0.00011796,-0.00004798,-0.00004314,0.00000701,-0.00007975,-0.000144
 15,-0.00010525,0.00018956,0.00021013,0.00010586,0.00024541,0.00021320,
 0.00009594,-0.00035009,-0.00044076,-0.00078920,0.00411205,0.00159445,-
 0.00726359,0.06941751,0.00311208,-0.21220572,0.00975350,-0.03932323,-0
 .05370031,-0.09394491,-0.00315317,0.34774620,-0.00003171,-0.00005938,-
 0.00003936,-0.00004402,0.00009412,0.00007089,0.00058245,-0.00030704,0.
 00004102,-0.00182507,-0.00056485,-0.00036816,0.00383729,-0.00150159,0.
 00065941,-0.00104943,0.00094974,-0.00030480,-0.00506995,-0.00049336,-0
 .00003221,0.00376645,0.00242320,-0.00073121,-0.00351474,0.00036292,0.0
 0038481,-0.00208303,0.00098299,-0.00003390,-0.00091981,0.00264870,-0.0
 0088451,-0.03508223,0.03262324,-0.02427273,-0.00185955,-0.00755333,-0.
 00059732,-0.00008166,-0.00001338,-0.00002269,0.00001381,0.00001929,0.0
 0000429,0.00000033,0.00001236,0.00002720,0.00002265,0.00000919,-0.0000
 0201,-0.00000868,-0.00003669,0.00000355,-0.00021352,0.00006198,0.00015
 057,0.00007307,0.00004525,-0.00001295,0.00006374,0.00013418,0.00008722
 ,-0.00040381,-0.00037499,0.00058319,-0.00014016,-0.00026543,-0.0000306
 8,-0.00397976,-0.00151646,-0.00053999,-0.00021250,-0.00350383,0.000631
 84,-0.15971614,0.06562626,-0.05671714,0.01275208,0.01648730,0.00377060
 ,0.01667250,-0.00100596,-0.00678255,0.17778308,0.00000870,0.00001284,0
 .00001081,0.00000790,-0.00003088,-0.00001476,-0.00015237,0.00007046,-0
 .00002330,0.00051136,0.00022136,0.00011598,-0.00119431,0.00041693,-0.0
 0021347,0.00021765,-0.00017119,0.00007799,0.00156707,0.00046658,-0.000
 06368,-0.00165409,-0.00111217,0.00042141,0.00066896,0.00079447,-0.0004
 2480,0.00094844,0.00188742,-0.00077173,-0.00379966,-0.00686800,0.00048
 938,0.00901749,0.00036827,0.00593873,-0.00078087,0.00258369,0.00074139
 ,0.00002105,0.00000360,0.00000662,-0.00000491,0.00000001,-0.00000285,-
 0.00000012,-0.00000422,-0.00000735,-0.00000616,-0.00000427,0.00000011,
 0.00000400,0.00001784,-0.00000400,0.00006050,-0.00002132,-0.00003894,-
 0.00002292,-0.00001019,0.00000115,0.00000470,-0.00004857,-0.00002958,0
 .00008267,0.00003489,-0.00029551,0.00017317,0.00006253,0.00000534,-0.0
 0340911,0.00219396,-0.00088457,-0.00403939,-0.00090460,-0.00049589,0.0
 7158314,-0.13864435,0.05359131,0.02938179,-0.07861742,0.01306232,0.005
 11537,-0.00266763,0.03396267,-0.10797443,0.21948091,-0.00000494,-0.000
 00827,-0.00000861,-0.00000705,0.00001946,0.00000536,0.00010535,-0.0000
 5251,-0.00000610,-0.00031762,-0.00012470,-0.00004905,0.00063881,-0.000
 12436,0.00004338,-0.00021340,0.00006063,0.00004119,-0.00081608,-0.0001
 7084,0.00010128,0.00086829,0.00018996,-0.00005505,-0.00016670,0.000444
 19,-0.00037310,-0.00064687,-0.00059356,0.00050735,0.00138810,0.0030131
 1,-0.00013723,-0.00793078,0.00872693,0.00276741,-0.00121818,-0.0015765
 0,0.00208650,-0.00001313,-0.00000177,-0.00000438,0.00000310,0.00000034
 ,0.00000038,-0.00000166,0.00000239,0.00000885,0.00000509,0.00000311,0.
 00000546,-0.00000229,-0.00001017,0.00000140,-0.00004192,0.00001097,0.0
 0003660,0.00001627,0.00000543,-0.00000362,0.00000309,0.00002085,-0.000
 00043,-0.00009320,-0.00020698,-0.00021912,-0.00011112,-0.00006336,-0.0
 0001680,0.00020063,-0.00116309,-0.00015637,0.00203124,-0.00047588,-0.0
 0150752,-0.06077854,0.05060869,-0.11256764,0.00405650,0.00375598,0.016
 16239,-0.02044411,0.04289553,-0.06852734,0.08547137,-0.10586449,0.1603
 7825,0.00000558,0.00002598,-0.00000684,0.00002551,-0.00001061,-0.00001
 757,-0.00003752,0.00008481,-0.00006388,0.00024997,-0.00031959,0.000162
 89,-0.00155074,0.00283916,-0.00079459,-0.00000864,-0.00205574,0.000698
 49,0.00234568,-0.00025958,0.00007066,0.00041053,-0.00119340,0.00086408
 ,-0.00417457,-0.00207804,0.00179078,0.00001291,-0.00048384,0.00000864,
 -0.00043543,0.00019393,0.00005920,0.00421836,0.00066492,-0.00056666,-0
 .00870416,0.00795631,-0.00778444,-0.00000463,-0.00000913,-0.00000563,0
 .00001082,-0.00001740,0.00000520,-0.00000063,0.00000030,0.00001065,-0.
 00000137,0.00001460,0.00000749,-0.00001154,-0.00002838,0.00000868,0.00
 002659,-0.00001515,-0.00000147,0.00004860,-0.00000352,-0.00000139,-0.0
 0007718,-0.00004523,0.00000403,0.00228781,-0.00247878,0.00063366,0.000
 20655,-0.00012718,0.00001819,0.00007034,0.00030082,0.00005083,-0.18843
 545,0.08157733,-0.07123278,-0.00085981,-0.00458954,0.00162839,0.000071
 92,0.00197224,-0.00026426,0.00026097,0.00118334,-0.00078012,-0.0002531
 5,0.00092643,-0.00057412,0.30060526,-0.00002360,-0.00006370,-0.0000193
 0,-0.00005003,0.00006257,0.00006301,0.00040888,-0.00028077,0.00004464,
 -0.00131137,-0.00010260,-0.00031981,0.00340573,-0.00239600,0.00082412,
 -0.00109584,0.00199652,-0.00060021,-0.00414070,0.00001759,-0.00003803,
 0.00377453,0.00218649,-0.00068382,-0.00030484,-0.00398895,0.00191055,-
 0.00024175,-0.00015195,0.00012065,0.00226891,-0.00154370,-0.00001903,-
 0.00632230,-0.00412252,0.00261618,0.03668725,-0.01947993,0.02113957,-0
 .00004941,-0.00000063,-0.00000881,-0.00000028,0.00003257,-0.00000473,-
 0.00000053,0.00000614,0.00001056,0.00001626,-0.00000707,-0.00000525,0.
 00000240,0.00000737,-0.00000852,-0.00015319,0.00004049,0.00010463,0.00
 001785,0.00003044,-0.00001436,0.00011319,0.00009420,0.00004285,0.00008
 130,-0.00438220,0.00191498,-0.00001537,-0.00014673,0.00008683,-0.00016
 404,-0.00088327,-0.00005877,0.07160869,-0.13564456,0.04961830,-0.00298
 258,-0.00079483,0.00004819,0.00062038,0.00091370,0.00030048,0.00072360
 ,0.00015202,-0.00049795,0.00095939,-0.00004208,0.00023193,-0.10395721,
 0.13762772,0.00001187,0.00003007,0.00000578,0.00002139,-0.00002253,-0.
 00003707,-0.00013512,0.00011059,-0.00006134,0.00052722,-0.00001157,0.0
 0017657,-0.00157394,0.00142281,-0.00047562,0.00043008,-0.00111953,0.00
 057351,0.00200567,-0.00006748,0.00012187,-0.00155482,-0.00061335,0.000
 37638,-0.00063423,0.00112020,0.00038296,0.00049626,-0.00002091,0.00000
 578,-0.00139958,0.00014929,-0.00017138,0.00324971,0.00279952,0.0004950
 1,-0.01747024,0.01103149,-0.00112330,0.00001894,0.00000036,0.00000233,
 0.00000272,-0.00001703,-0.00000177,-0.00000369,-0.00000404,0.00000585,
 -0.00000330,0.00000961,0.00001512,-0.00000299,-0.00000840,0.00000681,0
 .00004946,-0.00002192,-0.00001578,0.00000352,-0.00001594,-0.00000853,-
 0.00005715,-0.00005030,-0.00003586,0.00028396,0.00173847,-0.00132057,0
 .00004290,0.00003572,-0.00004793,0.00009221,0.00034750,-0.00022564,-0.
 06597411,0.05233337,-0.11543140,0.00099897,-0.00115377,-0.00152598,-0.
 00015367,0.00078176,0.00057679,-0.00038844,0.00001781,0.00091762,-0.00
 044139,0.00031937,0.00000032,0.11601554,-0.05997806,0.14537540,-0.0000
 1505,-0.00002203,-0.00002288,-0.00001141,0.00003726,0.00003763,0.00025
 643,-0.00011399,-0.00001946,-0.00071580,-0.00039360,-0.00009558,0.0008
 6248,0.00110071,-0.00020195,-0.00064694,-0.00074676,0.00013978,-0.0001
 5871,-0.00075042,0.00035150,-0.00027220,0.00055919,-0.00156264,0.00209
 459,-0.00304110,0.00162627,0.00113135,-0.00055566,0.00029237,-0.000560
 96,-0.00216608,-0.00033848,0.00073391,0.00108616,-0.00084428,-0.015684
 87,-0.00479371,0.01839625,-0.00004723,-0.00001315,-0.00001429,0.000011
 58,0.00000745,0.00000645,0.00000283,0.00000703,0.00001314,0.00000839,0
 .00000751,-0.00000730,-0.00000967,-0.00002563,0.00000248,-0.00007272,0
 .00001807,0.00005534,0.00005836,0.00002622,-0.00000154,0.00002386,0.00
 004930,0.00006058,0.00091963,0.00081532,0.00036974,0.00013565,-0.00008
 994,0.00018181,-0.00002211,-0.00033428,0.00010560,-0.18276250,-0.03506
 702,0.09767270,-0.00565521,-0.00865240,0.00711816,-0.00080614,0.005237
 71,-0.00494654,-0.00098587,0.00602603,-0.00428564,0.00066466,0.0015398
 4,-0.00122531,-0.08132641,0.01487318,0.01870879,0.27692511,-0.00001887
 ,-0.00004353,-0.00002149,-0.00003388,0.00004812,0.00004934,0.00033502,
 -0.00020280,-0.00000022,-0.00101468,-0.00018656,-0.00019421,0.00222292
 ,-0.00093903,0.00035582,-0.00078852,0.00083156,-0.00024153,-0.00226935
 ,-0.00057274,0.00023721,0.00027240,0.00039788,-0.00194392,0.00263393,-
 0.00480535,0.00287534,-0.00025354,-0.00031849,0.00025015,-0.00046869,-
 0.00010706,-0.00024767,-0.00025720,0.00134495,-0.00073066,-0.03207585,
 -0.00142038,0.02423516,-0.00004678,-0.00000554,-0.00001063,0.00000479,
 0.00002097,-0.00000092,-0.00000012,0.00000568,0.00001336,0.00001254,0.
 00000020,-0.00000319,-0.00000236,-0.00000604,-0.00000368,-0.00011666,0
 .00002879,0.00008583,0.00003208,0.00002940,-0.00001076,0.00008290,0.00
 007419,0.00003997,0.00005959,0.00030188,0.00060638,0.00001617,-0.00007
 959,0.00007009,0.00005436,-0.00015173,0.00000514,-0.03021846,-0.088910
 31,0.02880350,-0.00274885,-0.00227667,-0.00055645,0.00241010,0.0013175
 8,0.00209392,0.00458675,-0.00357250,0.00059063,0.00064001,0.00016098,0
 .00011199,0.02414997,0.01122548,-0.00916662,0.01448652,0.07929848,0.00
 001650,0.00002858,0.00001802,0.00001809,-0.00003745,-0.00004513,-0.000
 23112,0.00012489,-0.00002236,0.00074023,0.00025522,0.00015943,-0.00136
 480,-0.00002166,-0.00014802,0.00059159,-0.00004295,0.00017857,0.001120
 42,0.00078619,-0.00014591,0.00065915,-0.00099318,0.00082958,-0.0019356
 2,0.00497998,-0.00190725,-0.00028484,0.00020783,-0.00008151,0.00020417
 ,0.00068926,-0.00001133,-0.00039364,-0.00147572,0.00175540,0.02442115,
 0.00364585,-0.00698954,0.00004149,0.00000971,0.00001082,-0.00000685,-0
 .00001283,-0.00000629,-0.00000462,-0.00000693,-0.00000412,-0.00000700,
 -0.00000009,0.00001510,0.00000528,0.00001397,0.00000114,0.00007034,-0.
 00002176,-0.00004089,-0.00003606,-0.00002611,-0.00000410,-0.00005055,-
 0.00006065,-0.00005813,-0.00038017,-0.00029615,-0.00025830,-0.00005226
 ,0.00008667,-0.00007313,-0.00002627,0.00014810,-0.00011527,0.09426725,
 0.03413057,-0.15299497,0.00270870,0.00037710,-0.00692833,-0.00389963,0
 .00255826,-0.00251250,-0.00150857,-0.00091513,0.00367245,-0.00052534,-
 0.00004243,0.00087505,0.00569351,-0.00594265,0.01854819,-0.15532397,-0
 .01782671,0.21129330,-0.00000599,-0.00000954,-0.00001161,-0.00000371,0
 .00001834,0.00001411,0.00014162,-0.00005574,-0.00001137,-0.00036453,-0
 .00021357,-0.00003430,0.00040682,0.00061470,-0.00010483,-0.00028043,-0
 .00043886,0.00013652,-0.00009674,-0.00027623,-0.00003452,0.00044271,0.
 00115951,0.00036056,0.00044187,0.00038579,0.00040247,0.00107509,-0.000
 36264,0.00001555,-0.00035650,-0.00147421,0.00095968,-0.00092691,-0.000
 14898,-0.00069317,0.00732464,-0.01043286,-0.00795170,-0.00002286,-0.00
 000611,-0.00000741,0.00000618,0.00000270,0.00000163,-0.00000022,0.0000
 0304,0.00001054,0.00000589,0.00000546,0.00000180,-0.00000521,-0.000013
 98,0.00000193,-0.00004481,0.00000993,0.00003835,0.00003165,0.00001091,
 -0.00000471,0.00000367,0.00001155,0.00001573,0.00035537,0.00019996,-0.
 00043146,0.00006978,-0.00008361,-0.00004372,-0.00005660,-0.00020436,0.
 00021212,-0.08065608,-0.02939602,-0.03310422,-0.00289336,-0.00580078,-
 0.00141668,-0.00431085,0.00689825,0.00095123,0.00068270,0.00084798,0.0
 0014091,0.00025681,0.00119811,-0.00018080,-0.02497617,-0.01474849,-0.0
 5316653,0.00592496,0.01831380,0.03547343,0.09783123,-0.00002454,-0.000
 06053,-0.00003204,-0.00004952,0.00007044,0.00006178,0.00050793,-0.0002
 9610,-0.00001993,-0.00147013,-0.00028062,-0.00023902,0.00309002,-0.001
 13627,0.00048000,-0.00115042,0.00108760,-0.00008638,-0.00305996,-0.000
 65730,-0.00008744,0.00138437,0.00257750,0.00209505,0.00328586,-0.00418
 207,0.00054666,0.00084034,-0.00084776,0.00002814,-0.00140715,-0.001455
 25,0.00178872,-0.00143352,0.00206925,-0.00019557,-0.01487422,-0.029092
 85,-0.03452799,-0.00006415,-0.00000539,-0.00001449,0.00000712,0.000028
 16,-0.00000631,-0.00000442,0.00000574,0.00002777,0.00002121,0.00000490
 ,0.00000857,-0.00000325,-0.00000838,-0.00000453,-0.00018505,0.00003842
 ,0.00014928,0.00005005,0.00003720,-0.00002831,0.00011338,0.00007783,0.
 00001844,0.00018671,-0.00043845,-0.00145315,0.00005359,-0.00020309,-0.
 00015935,0.00002867,-0.00032925,0.00024308,-0.02929768,-0.16246775,-0.
 08985117,-0.00443513,-0.00426137,-0.00210018,0.00459366,0.00088795,0.0
 0104231,0.00154925,0.00064656,-0.00027967,0.00109058,0.00037013,0.0003
 3502,-0.00421783,0.01963819,0.00002351,0.01088826,0.00851217,-0.020319
 79,0.03398595,0.16967036,-0.00000415,-0.00001184,-0.00001411,-0.000015
 92,0.00002086,0.00000901,0.00017720,-0.00008939,-0.00006501,-0.0004434
 3,-0.00014195,-0.00000042,0.00070047,0.00014882,-0.00006893,-0.0003934
 9,-0.00002063,0.00034122,-0.00059471,-0.00034844,0.00016339,0.00011794
 ,0.00040728,0.00031834,0.00061096,-0.00146921,0.00087526,0.00034973,-0
 .00017682,0.00002502,-0.00008406,-0.00082725,0.00061896,-0.00056444,0.
 00038557,0.00066413,-0.00405465,-0.00826341,-0.00066858,-0.00001778,-0
 .00000021,-0.00000418,0.00000416,0.00000314,-0.00000621,-0.00000652,-0
 .00000086,0.00002007,0.00000950,0.00000956,0.00001853,-0.00000221,-0.0
 0000804,0.00000146,-0.00007080,0.00000663,0.00007722,0.00002674,0.0000
 0854,-0.00002265,0.00001763,0.00000717,-0.00002109,0.00044547,0.000067
 18,-0.00077541,0.00003553,-0.00010261,-0.00004779,-0.00000274,-0.00021
 834,0.00003623,-0.03187004,-0.09175878,-0.17390043,-0.00144562,-0.0033
 5080,-0.00503056,-0.00014044,0.00312531,0.00221478,0.00018810,-0.00004
 789,0.00185910,0.00045297,0.00043277,0.00061118,-0.04563715,-0.0108781
 7,-0.04710413,0.02375129,-0.02946519,-0.06500998,0.05846045,0.14255701
 ,0.28488556\\-0.00000633,0.00000419,0.00000060,0.00001440,-0.00000832,
 -0.00000051,-0.00003744,0.00002218,0.00001571,0.00007656,0.00003359,-0
 .00001410,-0.00003289,-0.00007830,0.00001698,-0.00000877,0.00003764,-0
 .00001483,-0.00002479,0.00000639,0.00001657,0.00003169,0.00002180,-0.0
 0002663,-0.00002967,-0.00002798,0.00000907,-0.00002151,0.00000109,0.00
 000625,0.00001190,-0.00000197,0.00001028,-0.00001992,0.00001117,0.0000
 0498,0.00002087,-0.00000226,-0.00000574,-0.00000417,-0.00000080,-0.000
 00195,0.00000184,-0.00000177,-0.00000412,-0.00000061,0.00000372,-0.000
 00141,0.00000055,0.00000057,0.00000108,-0.00000403,-0.00000243,0.00000
 036,0.00000609,-0.00000025,-0.00000671,0.00001064,-0.00001017,-0.00000
 183,-0.00001258,-0.00000067,0.00000394,0.00000886,-0.00000072,-0.00000
 329,0.00000003,0.00000104,0.00000297,-0.00000171,0.00000155,0.00000435
 ,-0.00001261,-0.00000404,0.00000305,0.00000897,0.00000432,0.00000830,-
 0.00000035,-0.00000746,-0.00000636,0.00000475,-0.00000667,0.00000067,0
 .00000119,0.00000569,-0.00000049,0.00000782,-0.00000152,-0.00000487,0.
 00000469,0.00000395,-0.00000430,0.00000655,-0.00000357,-0.00000801\\\@


 Make no judgements where you have no compassion.
                               -- Anne McCaffrey
 Job cpu time:       0 days  4 hours  8 minutes 23.3 seconds.
 File lengths (MBytes):  RWF=    635 Int=      0 D2E=      0 Chk=     14 Scr=      1
 Normal termination of Gaussian 09 at Wed Oct 31 13:01:31 2018.
WARNING: pbs_rusage is deprecated and values produced may not be accurate


=============================================================================
                                     Resource usage:
                                       CPU time:              11:25:50
   JobId:    1872969.r-man2            Elapsed time:          01:27:10
   Project:             q95            Requested time:        42:00:00
   Service Units:     11.62 
                                       Max physical memory:     1509MB
                                       Max virtual memory:      2471MB
                                       Requested memory:           0MB

                                       Number of cpus:               8

                                       Max jobfs disk use:       0.6GB
                                       Requested jobfs:         20.0GB
=============================================================================

