 Entering Gaussian System, Link 0=/apps/gaussian/g09e01/g09/g09
 AtFile(1): /home/507/hio507/Basis/6-31pGd.gbs
 Initial command:
 /apps/gaussian/g09e01/g09/l1.exe "/jobfs/local/5892856.r-man2/Gau-51235.inp" -scrdir="/jobfs/local/5892856.r-man2/"
 Entering Link 1 = /apps/gaussian/g09e01/g09/l1.exe PID=     51236.
  
 Copyright (c) 1988,1990,1992,1993,1995,1998,2003,2009,2015,
            Gaussian, Inc.  All Rights Reserved.
  
 This is part of the Gaussian(R) 09 program.  It is based on
 the Gaussian(R) 03 system (copyright 2003, Gaussian, Inc.),
 the Gaussian(R) 98 system (copyright 1998, Gaussian, Inc.),
 the Gaussian(R) 94 system (copyright 1995, Gaussian, Inc.),
 the Gaussian 92(TM) system (copyright 1992, Gaussian, Inc.),
 the Gaussian 90(TM) system (copyright 1990, Gaussian, Inc.),
 the Gaussian 88(TM) system (copyright 1988, Gaussian, Inc.),
 the Gaussian 86(TM) system (copyright 1986, Carnegie Mellon
 University), and the Gaussian 82(TM) system (copyright 1983,
 Carnegie Mellon University). Gaussian is a federally registered
 trademark of Gaussian, Inc.
  
 This software contains proprietary and confidential information,
 including trade secrets, belonging to Gaussian, Inc.
  
 This software is provided under written license and may be
 used, copied, transmitted, or stored only in accord with that
 written license.
  
 The following legend is applicable only to US Government
 contracts under FAR:
  
                    RESTRICTED RIGHTS LEGEND
  
 Use, reproduction and disclosure by the US Government is
 subject to restrictions as set forth in subparagraphs (a)
 and (c) of the Commercial Computer Software - Restricted
 Rights clause in FAR 52.227-19.
  
 Gaussian, Inc.
 340 Quinnipiac St., Bldg. 40, Wallingford CT 06492
  
  
 ---------------------------------------------------------------
 Warning -- This program may not be used in any manner that
 competes with the business of Gaussian, Inc. or will provide
 assistance to any competitor of Gaussian, Inc.  The licensee
 of this program is prohibited from giving any competitor of
 Gaussian, Inc. access to this program.  By using this program,
 the user acknowledges that Gaussian, Inc. is engaged in the
 business of creating and licensing software in the field of
 computational chemistry and represents and warrants to the
 licensee that it is not a competitor of Gaussian, Inc. and that
 it will not use this program in any manner prohibited above.
 ---------------------------------------------------------------
  

 Cite this work as:
 Gaussian 09, Revision E.01,
 M. J. Frisch, G. W. Trucks, H. B. Schlegel, G. E. Scuseria, 
 M. A. Robb, J. R. Cheeseman, G. Scalmani, V. Barone, B. Mennucci, 
 G. A. Petersson, H. Nakatsuji, M. Caricato, X. Li, H. P. Hratchian, 
 A. F. Izmaylov, J. Bloino, G. Zheng, J. L. Sonnenberg, M. Hada, 
 M. Ehara, K. Toyota, R. Fukuda, J. Hasegawa, M. Ishida, T. Nakajima, 
 Y. Honda, O. Kitao, H. Nakai, T. Vreven, J. A. Montgomery, Jr., 
 J. E. Peralta, F. Ogliaro, M. Bearpark, J. J. Heyd, E. Brothers, 
 K. N. Kudin, V. N. Staroverov, T. Keith, R. Kobayashi, J. Normand, 
 K. Raghavachari, A. Rendell, J. C. Burant, S. S. Iyengar, J. Tomasi, 
 M. Cossi, N. Rega, J. M. Millam, M. Klene, J. E. Knox, J. B. Cross, 
 V. Bakken, C. Adamo, J. Jaramillo, R. Gomperts, R. E. Stratmann, 
 O. Yazyev, A. J. Austin, R. Cammi, C. Pomelli, J. W. Ochterski, 
 R. L. Martin, K. Morokuma, V. G. Zakrzewski, G. A. Voth, 
 P. Salvador, J. J. Dannenberg, S. Dapprich, A. D. Daniels, 
 O. Farkas, J. B. Foresman, J. V. Ortiz, J. Cioslowski, 
 and D. J. Fox, Gaussian, Inc., Wallingford CT, 2013.
 
 ******************************************
 Gaussian 09:  ES64L-G09RevE.01 30-Nov-2015
                19-Feb-2019 
 ******************************************
 %chk=4SulfOxyCF3_EtO.M062X_6-31pGd_opt_Pentadecane.chk
 %mem=196608000
 %nproc=8
 Will use up to    8 processors via shared memory.
 ----------------------------------------------------------------------
 # M062X/Gen 6D SCF=Tight INT(grid=ultrafine) OPT IOP(2/17=4) SCRF=(SMD
 ,Solvent=n-Pentadecane) maxdisk=3221225472
 ----------------------------------------------------------------------
 1/14=-1,18=20,19=15,26=4,38=1/1,3;
 2/9=110,12=2,17=4,18=5,40=1/2;
 3/5=7,8=2,11=2,16=1,25=1,30=1,70=32201,71=1,72=151,74=-55,75=-5/1,2,3;
 4//1;
 5/5=2,32=2,38=5,53=151/2;
 6/7=2,8=2,9=2,10=2,28=1/1;
 7//1,2,3,16;
 1/14=-1,18=20,19=15,26=4/3(2);
 2/9=110,17=4/2;
 99//99;
 2/9=110,17=4/2;
 3/5=7,6=1,8=2,11=2,16=1,25=1,30=1,70=32205,71=1,72=151,74=-55,75=-5,82=7/1,2,3;
 4/5=5,16=3,69=1/1;
 5/5=2,32=2,38=5,53=151/2;
 7//1,2,3,16;
 1/14=-1,18=20,19=15,26=4/3(-5);
 2/9=110,17=4/2;
 6/7=2,8=2,9=2,10=2,19=2,28=1/1;
 99/9=1/99;
 ---------------------------------------------
 4SulfOxyCF3_EtO.M062X_6-31pGd_opt_Pentadecane
 ---------------------------------------------
 Symbolic Z-matrix:
 Charge = -1 Multiplicity = 1
 C                    -2.16915   2.1811   -0.17375 
 C                    -0.79143   1.57097   0.07232 
 C                     0.31769   2.60253  -0.10045 
 N                     1.60316   1.98573   0.13957 
 C                     2.73446   2.71217   0.02275 
 O                     2.75036   3.90578  -0.28315 
 N                     3.88254   1.96047   0.28634 
 C                     5.18089   2.38607   0.25431 
 C                     5.58806   3.70759  -0.05096 
 C                     6.16961   1.41199   0.55557 
 C                     7.50824   1.73965   0.54793 
 C                     7.89169   3.05445   0.243 
 C                     6.934     4.02963  -0.05594 
 H                    -2.9625    1.43684  -0.05004 
 H                    -2.24503   2.58646  -1.18975 
 H                    -2.36752   3.00208   0.52551 
 H                    -0.61361   0.73469  -0.61397 
 H                    -0.73376   1.14669   1.08157 
 H                     0.1684    3.44352   0.59229 
 H                     0.28976   3.02794  -1.11396 
 H                     1.62898   0.98047   0.40001 
 H                     3.7489    0.95297   0.53422 
 H                     4.83659   4.45197  -0.27363 
 H                     5.84149   0.40355   0.79568 
 H                     8.26462   0.99727   0.78491 
 S                     9.57879   3.46522   0.18423 
 O                     10.37606   2.50893   0.94331 
 O                     9.77177   4.90445   0.31847 
 H                     7.25414   5.04282  -0.28156 
 C                     10.05156   3.12414  -1.58373 
 F                     11.34325   3.40249  -1.7582 
 F                     9.84641   1.84334  -1.88757 
 F                     9.33667   3.87986  -2.4165 
 O                     1.52271  -0.72566   0.83148 
 O                     3.76371  -0.70497   0.95947 
 C                     2.63726  -1.26797   1.04006 
 C                     2.61009  -2.75433   1.42728 
 C                     3.98229  -3.36707   1.6782 
 H                     2.08151  -3.2844    0.62531 
 H                     1.96974  -2.84265   2.31358 
 H                     4.61134  -3.28384   0.78729 
 H                     3.89969  -4.42631   1.95056 
 H                     4.4996   -2.83902   2.48441 
 
 Add virtual bond connecting atoms O34        and H21        Dist= 3.33D+00.
 Add virtual bond connecting atoms O35        and H22        Dist= 3.23D+00.

 GradGradGradGradGradGradGradGradGradGradGradGradGradGradGradGradGradGrad
 Berny optimization.
 Initialization pass.
                           ----------------------------
                           !    Initial Parameters    !
                           ! (Angstroms and Degrees)  !
 --------------------------                            --------------------------
 ! Name  Definition              Value          Derivative Info.                !
 --------------------------------------------------------------------------------
 ! R1    R(1,2)                  1.5267         estimate D2E/DX2                !
 ! R2    R(1,14)                 1.0948         estimate D2E/DX2                !
 ! R3    R(1,15)                 1.0965         estimate D2E/DX2                !
 ! R4    R(1,16)                 1.0965         estimate D2E/DX2                !
 ! R5    R(2,3)                  1.5245         estimate D2E/DX2                !
 ! R6    R(2,17)                 1.0963         estimate D2E/DX2                !
 ! R7    R(2,18)                 1.0963         estimate D2E/DX2                !
 ! R8    R(3,4)                  1.4459         estimate D2E/DX2                !
 ! R9    R(3,19)                 1.0997         estimate D2E/DX2                !
 ! R10   R(3,20)                 1.0995         estimate D2E/DX2                !
 ! R11   R(4,5)                  1.3495         estimate D2E/DX2                !
 ! R12   R(4,21)                 1.0388         estimate D2E/DX2                !
 ! R13   R(5,6)                  1.2323         estimate D2E/DX2                !
 ! R14   R(5,7)                  1.3974         estimate D2E/DX2                !
 ! R15   R(7,8)                  1.3667         estimate D2E/DX2                !
 ! R16   R(7,22)                 1.0461         estimate D2E/DX2                !
 ! R17   R(8,9)                  1.4161         estimate D2E/DX2                !
 ! R18   R(8,10)                 1.4203         estimate D2E/DX2                !
 ! R19   R(9,13)                 1.3839         estimate D2E/DX2                !
 ! R20   R(9,23)                 1.0809         estimate D2E/DX2                !
 ! R21   R(10,11)                1.3782         estimate D2E/DX2                !
 ! R22   R(10,24)                1.0873         estimate D2E/DX2                !
 ! R23   R(11,12)                1.4031         estimate D2E/DX2                !
 ! R24   R(11,25)                1.086          estimate D2E/DX2                !
 ! R25   R(12,13)                1.3991         estimate D2E/DX2                !
 ! R26   R(12,26)                1.7374         estimate D2E/DX2                !
 ! R27   R(13,29)                1.0863         estimate D2E/DX2                !
 ! R28   R(21,34)                1.763          estimate D2E/DX2                !
 ! R29   R(22,35)                1.7117         estimate D2E/DX2                !
 ! R30   R(26,27)                1.4582         estimate D2E/DX2                !
 ! R31   R(26,28)                1.4583         estimate D2E/DX2                !
 ! R32   R(26,30)                1.8616         estimate D2E/DX2                !
 ! R33   R(30,31)                1.3328         estimate D2E/DX2                !
 ! R34   R(30,32)                1.3322         estimate D2E/DX2                !
 ! R35   R(30,33)                1.3326         estimate D2E/DX2                !
 ! R36   R(34,36)                1.2569         estimate D2E/DX2                !
 ! R37   R(35,36)                1.2619         estimate D2E/DX2                !
 ! R38   R(36,37)                1.5362         estimate D2E/DX2                !
 ! R39   R(37,38)                1.5236         estimate D2E/DX2                !
 ! R40   R(37,39)                1.0971         estimate D2E/DX2                !
 ! R41   R(37,40)                1.097          estimate D2E/DX2                !
 ! R42   R(38,41)                1.0938         estimate D2E/DX2                !
 ! R43   R(38,42)                1.0968         estimate D2E/DX2                !
 ! R44   R(38,43)                1.0938         estimate D2E/DX2                !
 ! A1    A(2,1,14)             111.3474         estimate D2E/DX2                !
 ! A2    A(2,1,15)             111.0702         estimate D2E/DX2                !
 ! A3    A(2,1,16)             111.0809         estimate D2E/DX2                !
 ! A4    A(14,1,15)            107.8101         estimate D2E/DX2                !
 ! A5    A(14,1,16)            107.8087         estimate D2E/DX2                !
 ! A6    A(15,1,16)            107.5533         estimate D2E/DX2                !
 ! A7    A(1,2,3)              111.5826         estimate D2E/DX2                !
 ! A8    A(1,2,17)             110.5062         estimate D2E/DX2                !
 ! A9    A(1,2,18)             110.5179         estimate D2E/DX2                !
 ! A10   A(3,2,17)             109.0991         estimate D2E/DX2                !
 ! A11   A(3,2,18)             109.1422         estimate D2E/DX2                !
 ! A12   A(17,2,18)            105.815          estimate D2E/DX2                !
 ! A13   A(2,3,4)              109.8376         estimate D2E/DX2                !
 ! A14   A(2,3,19)             110.3223         estimate D2E/DX2                !
 ! A15   A(2,3,20)             110.351          estimate D2E/DX2                !
 ! A16   A(4,3,19)             110.0203         estimate D2E/DX2                !
 ! A17   A(4,3,20)             109.917          estimate D2E/DX2                !
 ! A18   A(19,3,20)            106.3386         estimate D2E/DX2                !
 ! A19   A(3,4,5)              120.0861         estimate D2E/DX2                !
 ! A20   A(3,4,21)             118.4605         estimate D2E/DX2                !
 ! A21   A(5,4,21)             121.4534         estimate D2E/DX2                !
 ! A22   A(4,5,6)              123.6219         estimate D2E/DX2                !
 ! A23   A(4,5,7)              112.5105         estimate D2E/DX2                !
 ! A24   A(6,5,7)              123.8677         estimate D2E/DX2                !
 ! A25   A(5,7,8)              127.4865         estimate D2E/DX2                !
 ! A26   A(5,7,22)             117.246          estimate D2E/DX2                !
 ! A27   A(8,7,22)             115.267          estimate D2E/DX2                !
 ! A28   A(7,8,9)              124.6674         estimate D2E/DX2                !
 ! A29   A(7,8,10)             116.2814         estimate D2E/DX2                !
 ! A30   A(9,8,10)             119.0511         estimate D2E/DX2                !
 ! A31   A(8,9,13)             119.8388         estimate D2E/DX2                !
 ! A32   A(8,9,23)             119.1537         estimate D2E/DX2                !
 ! A33   A(13,9,23)            121.0072         estimate D2E/DX2                !
 ! A34   A(8,10,11)            120.7929         estimate D2E/DX2                !
 ! A35   A(8,10,24)            118.2197         estimate D2E/DX2                !
 ! A36   A(11,10,24)           120.987          estimate D2E/DX2                !
 ! A37   A(10,11,12)           119.3039         estimate D2E/DX2                !
 ! A38   A(10,11,25)           120.8477         estimate D2E/DX2                !
 ! A39   A(12,11,25)           119.845          estimate D2E/DX2                !
 ! A40   A(11,12,13)           120.8307         estimate D2E/DX2                !
 ! A41   A(11,12,26)           119.6223         estimate D2E/DX2                !
 ! A42   A(13,12,26)           119.5161         estimate D2E/DX2                !
 ! A43   A(9,13,12)            120.1819         estimate D2E/DX2                !
 ! A44   A(9,13,29)            120.2924         estimate D2E/DX2                !
 ! A45   A(12,13,29)           119.5226         estimate D2E/DX2                !
 ! A46   A(12,26,27)           110.9936         estimate D2E/DX2                !
 ! A47   A(12,26,28)           111.0222         estimate D2E/DX2                !
 ! A48   A(12,26,30)           103.6162         estimate D2E/DX2                !
 ! A49   A(27,26,28)           121.8002         estimate D2E/DX2                !
 ! A50   A(27,26,30)           103.6133         estimate D2E/DX2                !
 ! A51   A(28,26,30)           103.5702         estimate D2E/DX2                !
 ! A52   A(26,30,31)           109.4014         estimate D2E/DX2                !
 ! A53   A(26,30,32)           110.71           estimate D2E/DX2                !
 ! A54   A(26,30,33)           110.6926         estimate D2E/DX2                !
 ! A55   A(31,30,32)           108.6732         estimate D2E/DX2                !
 ! A56   A(31,30,33)           108.6433         estimate D2E/DX2                !
 ! A57   A(32,30,33)           108.668          estimate D2E/DX2                !
 ! A58   A(21,34,36)           113.8719         estimate D2E/DX2                !
 ! A59   A(22,35,36)           116.1226         estimate D2E/DX2                !
 ! A60   A(34,36,35)           126.0485         estimate D2E/DX2                !
 ! A61   A(34,36,37)           116.334          estimate D2E/DX2                !
 ! A62   A(35,36,37)           117.6175         estimate D2E/DX2                !
 ! A63   A(36,37,38)           114.5008         estimate D2E/DX2                !
 ! A64   A(36,37,39)           106.9633         estimate D2E/DX2                !
 ! A65   A(36,37,40)           106.9704         estimate D2E/DX2                !
 ! A66   A(38,37,39)           111.1009         estimate D2E/DX2                !
 ! A67   A(38,37,40)           111.1178         estimate D2E/DX2                !
 ! A68   A(39,37,40)           105.6918         estimate D2E/DX2                !
 ! A69   A(37,38,41)           110.6847         estimate D2E/DX2                !
 ! A70   A(37,38,42)           111.1905         estimate D2E/DX2                !
 ! A71   A(37,38,43)           110.6824         estimate D2E/DX2                !
 ! A72   A(41,38,42)           108.6058         estimate D2E/DX2                !
 ! A73   A(41,38,43)           106.9546         estimate D2E/DX2                !
 ! A74   A(42,38,43)           108.5915         estimate D2E/DX2                !
 ! A75   L(4,21,34,1,-1)       175.1092         estimate D2E/DX2                !
 ! A76   L(7,22,35,1,-1)       187.8559         estimate D2E/DX2                !
 ! A77   L(4,21,34,1,-2)       179.997          estimate D2E/DX2                !
 ! A78   L(7,22,35,1,-2)       180.0552         estimate D2E/DX2                !
 ! D1    D(14,1,2,3)           179.9222         estimate D2E/DX2                !
 ! D2    D(14,1,2,17)           58.3463         estimate D2E/DX2                !
 ! D3    D(14,1,2,18)          -58.4388         estimate D2E/DX2                !
 ! D4    D(15,1,2,3)            59.7565         estimate D2E/DX2                !
 ! D5    D(15,1,2,17)          -61.8194         estimate D2E/DX2                !
 ! D6    D(15,1,2,18)         -178.6045         estimate D2E/DX2                !
 ! D7    D(16,1,2,3)           -59.9066         estimate D2E/DX2                !
 ! D8    D(16,1,2,17)          178.5175         estimate D2E/DX2                !
 ! D9    D(16,1,2,18)           61.7323         estimate D2E/DX2                !
 ! D10   D(1,2,3,4)           -179.9533         estimate D2E/DX2                !
 ! D11   D(1,2,3,19)            58.5991         estimate D2E/DX2                !
 ! D12   D(1,2,3,20)           -58.616          estimate D2E/DX2                !
 ! D13   D(17,2,3,4)           -57.5659         estimate D2E/DX2                !
 ! D14   D(17,2,3,19)         -179.0136         estimate D2E/DX2                !
 ! D15   D(17,2,3,20)           63.7713         estimate D2E/DX2                !
 ! D16   D(18,2,3,4)            57.615          estimate D2E/DX2                !
 ! D17   D(18,2,3,19)          -63.8327         estimate D2E/DX2                !
 ! D18   D(18,2,3,20)          178.9522         estimate D2E/DX2                !
 ! D19   D(2,3,4,5)            179.0616         estimate D2E/DX2                !
 ! D20   D(2,3,4,21)            -0.8786         estimate D2E/DX2                !
 ! D21   D(19,3,4,5)           -59.31           estimate D2E/DX2                !
 ! D22   D(19,3,4,21)          120.7498         estimate D2E/DX2                !
 ! D23   D(20,3,4,5)            57.4643         estimate D2E/DX2                !
 ! D24   D(20,3,4,21)         -122.4758         estimate D2E/DX2                !
 ! D25   D(3,4,5,6)              0.086          estimate D2E/DX2                !
 ! D26   D(3,4,5,7)           -179.8851         estimate D2E/DX2                !
 ! D27   D(21,4,5,6)          -179.9757         estimate D2E/DX2                !
 ! D28   D(21,4,5,7)             0.0532         estimate D2E/DX2                !
 ! D29   D(3,4,34,36)          179.9288         estimate D2E/DX2                !
 ! D30   D(5,4,34,36)            0.0164         estimate D2E/DX2                !
 ! D31   D(4,5,7,8)            179.8618         estimate D2E/DX2                !
 ! D32   D(4,5,7,22)             0.1469         estimate D2E/DX2                !
 ! D33   D(6,5,7,8)             -0.1093         estimate D2E/DX2                !
 ! D34   D(6,5,7,22)          -179.8242         estimate D2E/DX2                !
 ! D35   D(5,7,8,9)              0.5806         estimate D2E/DX2                !
 ! D36   D(5,7,8,10)          -179.5528         estimate D2E/DX2                !
 ! D37   D(22,7,8,9)          -179.6996         estimate D2E/DX2                !
 ! D38   D(22,7,8,10)            0.1669         estimate D2E/DX2                !
 ! D39   D(5,7,35,36)           -0.3591         estimate D2E/DX2                !
 ! D40   D(8,7,35,36)          179.8313         estimate D2E/DX2                !
 ! D41   D(7,8,9,13)          -179.9358         estimate D2E/DX2                !
 ! D42   D(7,8,9,23)             0.2932         estimate D2E/DX2                !
 ! D43   D(10,8,9,13)            0.2011         estimate D2E/DX2                !
 ! D44   D(10,8,9,23)         -179.5699         estimate D2E/DX2                !
 ! D45   D(7,8,10,11)          179.8829         estimate D2E/DX2                !
 ! D46   D(7,8,10,24)           -0.3492         estimate D2E/DX2                !
 ! D47   D(9,8,10,11)           -0.2427         estimate D2E/DX2                !
 ! D48   D(9,8,10,24)          179.5252         estimate D2E/DX2                !
 ! D49   D(8,9,13,12)           -0.1667         estimate D2E/DX2                !
 ! D50   D(8,9,13,29)         -179.5269         estimate D2E/DX2                !
 ! D51   D(23,9,13,12)         179.6            estimate D2E/DX2                !
 ! D52   D(23,9,13,29)           0.2397         estimate D2E/DX2                !
 ! D53   D(8,10,11,12)           0.2445         estimate D2E/DX2                !
 ! D54   D(8,10,11,25)         179.5703         estimate D2E/DX2                !
 ! D55   D(24,10,11,12)       -179.5171         estimate D2E/DX2                !
 ! D56   D(24,10,11,25)         -0.1912         estimate D2E/DX2                !
 ! D57   D(10,11,12,13)         -0.2073         estimate D2E/DX2                !
 ! D58   D(10,11,12,26)       -178.173          estimate D2E/DX2                !
 ! D59   D(25,11,12,13)       -179.54           estimate D2E/DX2                !
 ! D60   D(25,11,12,26)          2.4942         estimate D2E/DX2                !
 ! D61   D(11,12,13,9)           0.1695         estimate D2E/DX2                !
 ! D62   D(11,12,13,29)        179.5347         estimate D2E/DX2                !
 ! D63   D(26,12,13,9)         178.1375         estimate D2E/DX2                !
 ! D64   D(26,12,13,29)         -2.4974         estimate D2E/DX2                !
 ! D65   D(11,12,26,27)        -21.4618         estimate D2E/DX2                !
 ! D66   D(11,12,26,28)       -160.2382         estimate D2E/DX2                !
 ! D67   D(11,12,26,30)         89.169          estimate D2E/DX2                !
 ! D68   D(13,12,26,27)        160.5455         estimate D2E/DX2                !
 ! D69   D(13,12,26,28)         21.7691         estimate D2E/DX2                !
 ! D70   D(13,12,26,30)        -88.8238         estimate D2E/DX2                !
 ! D71   D(12,26,30,31)       -179.8965         estimate D2E/DX2                !
 ! D72   D(12,26,30,32)        -60.1579         estimate D2E/DX2                !
 ! D73   D(12,26,30,33)         60.4126         estimate D2E/DX2                !
 ! D74   D(27,26,30,31)        -63.924          estimate D2E/DX2                !
 ! D75   D(27,26,30,32)         55.8146         estimate D2E/DX2                !
 ! D76   D(27,26,30,33)        176.3851         estimate D2E/DX2                !
 ! D77   D(28,26,30,31)         64.1162         estimate D2E/DX2                !
 ! D78   D(28,26,30,32)       -176.1451         estimate D2E/DX2                !
 ! D79   D(28,26,30,33)        -55.5746         estimate D2E/DX2                !
 ! D80   D(21,34,36,35)         -0.331          estimate D2E/DX2                !
 ! D81   D(21,34,36,37)        179.7078         estimate D2E/DX2                !
 ! D82   D(22,35,36,34)          0.3757         estimate D2E/DX2                !
 ! D83   D(22,35,36,37)       -179.6635         estimate D2E/DX2                !
 ! D84   D(34,36,37,38)       -179.6609         estimate D2E/DX2                !
 ! D85   D(34,36,37,39)         56.7902         estimate D2E/DX2                !
 ! D86   D(34,36,37,40)        -56.0849         estimate D2E/DX2                !
 ! D87   D(35,36,37,38)          0.3745         estimate D2E/DX2                !
 ! D88   D(35,36,37,39)       -123.1744         estimate D2E/DX2                !
 ! D89   D(35,36,37,40)        123.9505         estimate D2E/DX2                !
 ! D90   D(36,37,38,41)        -59.2244         estimate D2E/DX2                !
 ! D91   D(36,37,38,42)        179.9687         estimate D2E/DX2                !
 ! D92   D(36,37,38,43)         59.1816         estimate D2E/DX2                !
 ! D93   D(39,37,38,41)         62.077          estimate D2E/DX2                !
 ! D94   D(39,37,38,42)        -58.7299         estimate D2E/DX2                !
 ! D95   D(39,37,38,43)       -179.5171         estimate D2E/DX2                !
 ! D96   D(40,37,38,41)        179.452          estimate D2E/DX2                !
 ! D97   D(40,37,38,42)         58.645          estimate D2E/DX2                !
 ! D98   D(40,37,38,43)        -62.1421         estimate D2E/DX2                !
 --------------------------------------------------------------------------------
 Trust Radius=3.00D-01 FncErr=1.00D-07 GrdErr=1.00D-06
 Number of steps in this run=    230 maximum allowed number of steps=    258.
 GradGradGradGradGradGradGradGradGradGradGradGradGradGradGradGradGradGrad

                          Input orientation:                          
 ---------------------------------------------------------------------
 Center     Atomic      Atomic             Coordinates (Angstroms)
 Number     Number       Type             X           Y           Z
 ---------------------------------------------------------------------
      1          6           0       -2.169152    2.181103   -0.173746
      2          6           0       -0.791433    1.570968    0.072315
      3          6           0        0.317694    2.602530   -0.100448
      4          7           0        1.603164    1.985727    0.139567
      5          6           0        2.734456    2.712166    0.022750
      6          8           0        2.750360    3.905776   -0.283151
      7          7           0        3.882545    1.960467    0.286337
      8          6           0        5.180887    2.386074    0.254306
      9          6           0        5.588064    3.707594   -0.050964
     10          6           0        6.169611    1.411985    0.555571
     11          6           0        7.508243    1.739654    0.547928
     12          6           0        7.891692    3.054447    0.243001
     13          6           0        6.934002    4.029629   -0.055943
     14          1           0       -2.962498    1.436835   -0.050039
     15          1           0       -2.245025    2.586457   -1.189754
     16          1           0       -2.367515    3.002079    0.525508
     17          1           0       -0.613614    0.734690   -0.613974
     18          1           0       -0.733757    1.146689    1.081571
     19          1           0        0.168405    3.443522    0.592290
     20          1           0        0.289756    3.027938   -1.113964
     21          1           0        1.628976    0.980466    0.400011
     22          1           0        3.748897    0.952968    0.534225
     23          1           0        4.836589    4.451965   -0.273626
     24          1           0        5.841493    0.403554    0.795683
     25          1           0        8.264619    0.997271    0.784913
     26         16           0        9.578791    3.465219    0.184232
     27          8           0       10.376055    2.508928    0.943312
     28          8           0        9.771773    4.904446    0.318468
     29          1           0        7.254136    5.042823   -0.281556
     30          6           0       10.051564    3.124137   -1.583727
     31          9           0       11.343246    3.402494   -1.758201
     32          9           0        9.846411    1.843335   -1.887574
     33          9           0        9.336672    3.879864   -2.416497
     34          8           0        1.522708   -0.725661    0.831478
     35          8           0        3.763713   -0.704966    0.959471
     36          6           0        2.637264   -1.267969    1.040057
     37          6           0        2.610094   -2.754327    1.427278
     38          6           0        3.982286   -3.367074    1.678200
     39          1           0        2.081508   -3.284404    0.625308
     40          1           0        1.969743   -2.842650    2.313582
     41          1           0        4.611345   -3.283845    0.787291
     42          1           0        3.899689   -4.426313    1.950555
     43          1           0        4.499604   -2.839023    2.484407
 ---------------------------------------------------------------------
                    Distance matrix (angstroms):
                    1          2          3          4          5
     1  C    0.000000
     2  C    1.526736   0.000000
     3  C    2.523366   1.524510   0.000000
     4  N    3.790344   2.431181   1.445852   0.000000
     5  C    4.936193   3.706303   2.422382   1.349511   0.000000
     6  O    5.214217   4.256991   2.765807   2.276255   1.232288
     7  N    6.073170   4.695059   3.642803   2.284241   1.397368
     8  C    7.365345   6.030432   4.880917   3.601880   2.478906
     9  C    7.906936   6.728918   5.385203   4.345176   3.023142
    10  C    8.405855   6.979608   6.007719   4.621111   3.711422
    11  C    9.714302   8.315004   7.271104   5.924295   4.900065
    12  C   10.107274   8.810590   7.595238   6.379533   5.173273
    13  C    9.289690   8.108255   6.768613   5.712582   4.402055
    14  H    1.094823   2.178644   3.481529   4.602446   5.838412
    15  H    1.096513   2.176458   2.784668   4.115402   5.126519
    16  H    1.096498   2.176580   2.786002   4.116822   5.134874
    17  H    2.169241   1.096345   2.149388   2.654623   3.940228
    18  H    2.169376   1.096328   2.149928   2.655665   3.949724
    19  H    2.764902   2.167515   1.099745   2.094913   2.728347
    20  H    2.765387   2.167716   1.099530   2.093463   2.714478
    21  H    4.024488   2.512858   2.144997   1.038771   2.088826
    22  H    6.085461   4.605418   3.859666   2.413817   2.094152
    23  H    7.365269   6.332018   4.885777   4.087554   2.744760
    24  H    8.262560   6.773612   6.012562   4.571344   3.947251
    25  H   10.544386   9.102143   8.155633   6.765242   5.839903
    26  S   11.823335  10.542402   9.305546   8.111813   6.887531
    27  O   12.599107  11.240604  10.112805   8.825155   7.699531
    28  O   12.257429  11.079440   9.739298   8.676238   7.376814
    29  H    9.848828   8.769845   7.355410   6.438685   5.094318
    30  C   12.337879  11.078149   9.860042   8.697194   7.502704
    31  F   13.659692  12.407889  11.178144  10.023869   8.818141
    32  F   12.141872  10.820308   9.724539   8.490035   7.415127
    33  F   11.844818  10.681933   9.398811   8.362318   7.134613
    34  O    4.805162   3.347548   3.660246   2.799435   3.733768
    35  O    6.694211   5.168779   4.892649   3.546836   3.689662
    36  C    6.039126   4.555441   4.654237   3.530833   4.109237
    37  C    7.054285   5.666964   6.023700   5.014002   5.645414
    38  C    8.488354   7.053475   7.226963   6.056408   6.422986
    39  H    6.969818   5.668706   6.188195   5.314041   6.062034
    40  H    6.968167   5.668103   6.181165   5.307913   6.057117
    41  H    8.761528   7.298657   7.339818   6.102219   6.329247
    42  H    9.219622   7.842308   8.151193   7.047550   7.485458
    43  H    8.760123   7.298032   7.333509   6.096380   6.323859
                    6          7          8          9         10
     6  O    0.000000
     7  N    2.321720   0.000000
     8  C    2.916473   1.366696   0.000000
     9  C    2.854076   2.464755   1.416121   0.000000
    10  C    4.314362   2.367275   1.420276   2.444566   0.000000
    11  C    5.293414   3.641823   2.433241   2.813992   1.378174
    12  C    5.237833   4.155951   2.792009   2.412410   2.400197
    13  C    4.191638   3.702699   2.423003   1.383937   2.794692
    14  H    6.227901   6.873278   8.204169   8.846946   9.152202
    15  H    5.245608   6.333863   7.567670   7.994440   8.673618
    16  H    5.259585   6.340774   7.578350   8.007578   8.683998
    17  H    4.634819   4.746424   6.087464   6.900431   6.916553
    18  H    4.649096   4.754458   6.099463   6.914209   6.928459
    19  H    2.765242   4.010972   5.133946   5.464084   6.335847
    20  H    2.741426   4.001059   5.119308   5.446464   6.322289
    21  H    3.206500   2.460060   3.822699   4.828559   4.563745
    22  H    3.222461   1.046119   2.045176   3.363473   2.463942
    23  H    2.156564   2.726045   2.159898   1.080917   3.421402
    24  H    4.794219   2.553603   2.158674   3.420192   1.087312
    25  H    6.325126   4.514300   3.423408   3.899807   2.147940
    26  S    6.858572   5.892531   4.528910   4.004992   3.997020
    27  O    7.848989   6.549664   5.242099   5.034903   4.364379
    28  O    7.117552   6.584152   5.236655   4.367191   5.022855
    29  H    4.645093   4.603373   3.412305   2.147512   3.880716
    30  C    7.457215   6.550425   5.258004   4.755273   4.751592
    31  F    8.733085   7.869030   6.561857   6.010813   6.006844
    32  F    7.561864   6.348804   5.162299   4.998212   4.435525
    33  F    6.923247   6.382547   5.160926   4.435932   4.995388
    34  O    4.919322   3.616807   4.837178   6.079439   5.122437
    35  O    4.881591   2.751684   3.472775   4.880566   3.230009
    36  C    5.341470   3.541415   4.521001   5.886746   4.460309
    37  C    6.877660   5.014994   5.865881   7.267044   5.548711
    38  C    7.632750   5.507261   6.046720   7.457846   5.374392
    39  H    7.278141   5.555835   6.472875   7.851198   6.226838
    40  H    7.272801   5.553239   6.472373   7.847867   6.231485
    41  H    7.503316   5.318356   5.723323   7.108929   4.953050
    42  H    8.702535   6.600067   7.136340   8.545007   6.417496
    43  H    7.497436   5.314827   5.721812   7.104298   4.957863
                   11         12         13         14         15
    11  C    0.000000
    12  C    1.403102   0.000000
    13  C    2.436883   1.399113   0.000000
    14  H   10.492173  10.977977  10.230510   0.000000
    15  H    9.942981  10.248163   9.360706   1.770692   0.000000
    16  H    9.956145  10.263230   9.376149   1.770663   1.769144
    17  H    8.265866   8.857534   8.254364   2.515608   2.534179
    18  H    8.280516   8.873619   8.270418   2.516349   3.084766
    19  H    7.535142   7.740965   6.821806   3.773848   3.120078
    20  H    7.518519   7.722143   6.802117   3.773686   2.574056
    21  H    5.929926   6.599065   6.135844   4.635996   4.484913
    22  H    3.840801   4.654437   4.467554   6.754133   6.447285
    23  H    3.894781   3.399061   2.150557   8.364614   7.380289
    24  H    2.150489   3.396470   3.881657   8.904671   8.608066
    25  H    1.086001   2.159795   3.416544  11.266700  10.810988
    26  S    2.719745   1.737380   2.714986  12.706421  11.935773
    27  O    2.995406   2.638198   3.893427  13.418388  12.800299
    28  O    3.897709   2.638730   2.993064  13.203098  12.330906
    29  H    3.415192   2.152969   1.086254  10.836806   9.853559
    30  C    3.595724   2.829636   3.587929  13.212305  12.314643
    31  F    4.773941   4.004893   4.767852  14.540837  13.624616
    32  F    3.377787   3.134816   4.076381  12.946426  12.134332
    33  F    4.087966   3.137230   3.371568  12.760804  11.718085
    34  O    6.479569   7.429635   7.258265   5.056732   5.408449
    35  O    4.490773   5.629096   5.787762   7.130803   7.180361
    36  C    5.745819   6.850372   6.908525   6.313605   6.607980
    37  C    6.705295   7.939751   8.180354   7.127558   7.677566
    38  C    6.307817   7.653704   8.150527   8.619419   9.080148
    39  H    7.395715   8.607289   8.803742   6.941772   7.515341
    40  H    7.402028   8.610025   8.802655   6.944617   7.714457
    41  H    5.803865   7.157574   7.719629   8.963762   9.240074
    42  H    7.280672   8.649486   9.205219   9.244918   9.838598
    43  H    5.810864   7.159829   7.717386   8.966011   9.403474
                   16         17         18         19         20
    16  H    0.000000
    17  H    3.084743   0.000000
    18  H    2.533939   1.749013   0.000000
    19  H    2.574922   3.066659   2.515698   0.000000
    20  H    3.122440   2.514966   3.067092   1.760323   0.000000
    21  H    4.480471   2.473415   2.464683   2.869997   2.877112
    22  H    6.450537   4.516360   4.520099   4.361898   4.357486
    23  H    7.391881   6.605958   6.617414   4.853732   4.838152
    24  H    8.614705   6.615526   6.623284   6.439464   6.430857
    25  H   10.822608   8.991600   9.004505   8.459902   8.445578
    26  S   11.960150  10.581967  10.607989   9.419254   9.389499
    27  O   12.759951  11.240369  11.193870  10.256354  10.307045
    28  O   12.289190  11.229986  11.183436   9.717714   9.771479
    29  H    9.868747   8.976191   8.991352   7.316349   7.297620
    30  C   12.597512  10.972507  11.284382  10.124915   9.773578
    31  F   13.905418  12.304184  12.609796  11.419438  11.078582
    32  F   12.503826  10.595437  11.010953  10.118010   9.660818
    33  F   12.100162  10.590062  11.005465   9.659209   9.179818
    34  O    5.396620   2.964090   2.942766   4.390152   4.403910
    35  O    7.177916   4.869224   4.865262   5.501911   5.504733
    36  C    6.598931   4.161090   4.146815   5.337968   5.348403
    37  C    7.663289   5.170323   5.149638   6.713597   6.728779
    38  C    9.067237   6.572734   6.555233   7.880933   7.894754
    39  H    7.702184   4.995260   5.269580   6.994715   6.788307
    40  H    7.494657   5.295440   4.974091   6.761925   7.002445
    41  H    9.396055   6.738870   6.948837   8.064440   7.882227
    42  H    9.822914   7.320019   7.299473   8.814855   8.831125
    43  H    9.225676   6.965371   6.726211   7.861919   8.067982
                   21         22         23         24         25
    21  H    0.000000
    22  H    2.124342   0.000000
    23  H    4.774293   3.752157   0.000000
    24  H    4.270208   2.179260   4.306145   0.000000
    25  H    6.646818   4.522893   4.980643   2.494826   0.000000
    26  S    8.331873   6.357796   4.865365   4.869811   2.859830
    27  O    8.896222   6.819648   5.995166   5.001665   2.601607
    28  O    9.039326   7.206648   4.991128   5.994403   4.213680
    29  H    6.972065   5.447854   2.488717   4.967778   4.304058
    30  C    8.914624   6.994521   5.538543   5.548681   3.650642
    31  F   10.241637   8.302382   6.755882   6.766480   4.661595
    32  F    8.573437   6.620993   5.874359   5.031124   3.218707
    33  F    8.703321   6.963959   5.016966   5.883801   4.439332
    34  O    1.763045   2.803938   6.245869   4.464114   6.958738
    35  O    2.776829   1.711665   5.409763   2.360680   4.815209
    36  C    2.545931   2.534591   6.267411   3.622264   6.071536
    37  C    3.995816   3.979755   7.731817   4.562134   6.816215
    38  C    5.106167   4.475032   8.104124   4.295710   6.179309
    39  H    4.294725   4.554536   8.261353   5.269492   7.522571
    40  H    4.288834   4.553923   8.253718   5.275633   7.530424
    41  H    5.218127   4.331101   7.811468   3.887190   5.627999
    42  H    6.065772   5.564656   9.200467   5.332162   7.058797
    43  H    5.212841   4.329661   7.802488   3.894453   5.637444
                   26         27         28         29         30
    26  S    0.000000
    27  O    1.458192   0.000000
    28  O    1.458300   2.548351   0.000000
    29  H    2.847773   4.203248   2.591847   0.000000
    30  C    1.861594   2.621011   2.620330   3.633539   0.000000
    31  F    2.624935   3.005343   3.006317   4.646717   1.332804
    32  F    2.644713   2.955918   3.773936   4.419944   1.332240
    33  F    2.644683   3.774665   2.952815   3.201156   1.332554
    34  O    9.104003   9.426390  10.000419   8.207528   9.664138
    35  O    7.197677   7.352037   8.244585   6.838149   7.788900
    36  C    8.445135   8.611806   9.461534   7.930212   9.008146
    37  C    9.422879   9.393947  10.543999   9.234868   9.949772
    38  C    8.957289   8.714800  10.187496   9.234284   9.466368
    39  H   10.097584  10.122417  11.237953   9.844856  10.462840
    40  H   10.110437  10.058981  11.174509   9.840743  10.775314
    41  H    8.401729   8.173888   9.690094   8.801146   8.733839
    42  H    9.881719   9.542297  11.144871  10.290732  10.360793
    43  H    8.416199   8.093716   9.615008   8.795538   9.106770
                   31         32         33         34         35
    31  F    0.000000
    32  F    2.165232   0.000000
    33  F    2.165081   2.164958   0.000000
    34  O   10.963169   9.125624   9.634223   0.000000
    35  O    9.039153   7.183225   7.967164   2.244753   0.000000
    36  C   10.268281   8.379919   9.128528   1.256916   1.261886
    37  C   11.149963   9.191900  10.199704   2.377577   2.397824
    38  C   10.574480   8.616906   9.897177   3.707226   2.766073
    39  H   11.669426   9.638568  10.640335   2.627152   3.097576
    40  H   11.976802  10.082166  11.038002   2.622616   3.101876
    41  H    9.823703   7.800564   9.160333   4.010727   2.720062
    42  H   11.421543   9.455328  10.845484   4.538414   3.853461
    43  H   10.187821   8.344282   9.620787   4.007541   2.724181
                   36         37         38         39         40
    36  C    0.000000
    37  C    1.536209   0.000000
    38  C    2.573432   1.523592   0.000000
    39  H    2.132344   1.097060   2.174482   0.000000
    40  H    2.132386   1.096989   2.174640   1.748688   0.000000
    41  H    2.832780   2.166790   1.093783   2.535017   3.082576
    42  H    3.521060   2.175411   1.096808   2.523097   2.522790
    43  H    2.832432   2.166782   1.093813   3.082499   2.535624
                   41         42         43
    41  H    0.000000
    42  H    1.779009   0.000000
    43  H    1.757998   1.778872   0.000000
 Stoichiometry    C14H18F3N2O5S(1-)
 Framework group  C1[X(C14H18F3N2O5S)]
 Deg. of freedom   123
 Full point group                 C1      NOp   1
 Largest Abelian subgroup         C1      NOp   1
 Largest concise Abelian subgroup C1      NOp   1
                         Standard orientation:                         
 ---------------------------------------------------------------------
 Center     Atomic      Atomic             Coordinates (Angstroms)
 Number     Number       Type             X           Y           Z
 ---------------------------------------------------------------------
      1          6           0       -7.116737   -2.702563    0.399938
      2          6           0       -6.020820   -1.645326    0.289764
      3          6           0       -4.645187   -2.279430    0.117490
      4          7           0       -3.637904   -1.246933    0.018397
      5          6           0       -2.337837   -1.581222   -0.120367
      6          8           0       -1.934141   -2.744367   -0.171910
      7          7           0       -1.503308   -0.463122   -0.198150
      8          6           0       -0.143822   -0.448035   -0.337536
      9          6           0        0.668189   -1.603616   -0.440827
     10          6           0        0.469667    0.832154   -0.381512
     11          6           0        1.835541    0.955674   -0.517509
     12          6           0        2.623045   -0.201205   -0.618321
     13          6           0        2.039001   -1.471947   -0.578018
     14          1           0       -8.102608   -2.243125    0.524881
     15          1           0       -6.943031   -3.362449    1.258261
     16          1           0       -7.150768   -3.330434   -0.498353
     17          1           0       -6.012368   -1.006619    1.180805
     18          1           0       -6.216488   -0.975727   -0.555982
     19          1           0       -4.626018   -2.911703   -0.782123
     20          1           0       -4.420472   -2.941752    0.965901
     21          1           0       -3.941090   -0.254168    0.057681
     22          1           0       -1.956717    0.477861   -0.140374
     23          1           0        0.202304   -2.578625   -0.414602
     24          1           0       -0.167356    1.710321   -0.308913
     25          1           0        2.304871    1.934179   -0.558191
     26         16           0        4.349953   -0.056413   -0.742069
     27          8           0        4.730174    1.266902   -1.222270
     28          8           0        4.938769   -1.271940   -1.292001
     29          1           0        2.668050   -2.353185   -0.665571
     30          6           0        4.918128   -0.059186    1.030698
     31          9           0        6.245807    0.050667    1.070265
     32          9           0        4.385430    0.963612    1.697767
     33          9           0        4.566259   -1.192901    1.636156
     34          8           0       -4.596578    1.380425    0.139946
     35          8           0       -2.482518    2.105265   -0.070462
     36          6           0       -3.725489    2.282616    0.055736
     37          6           0       -4.235961    3.730353    0.114167
     38          6           0       -3.146655    4.789493    0.000296
     39          1           0       -4.792679    3.835776    1.053577
     40          1           0       -4.979215    3.840295   -0.685127
     41          1           0       -2.415024    4.679408    0.805877
     42          1           0       -3.569921    5.800229    0.047690
     43          1           0       -2.601738    4.683456   -0.942173
 ---------------------------------------------------------------------
 Rotational constants (GHZ):      0.3254416      0.0774936      0.0665416
 General basis read from cards:  (6D, 7F)
 There are   515 symmetry adapted cartesian basis functions of A   symmetry.
 There are   515 symmetry adapted basis functions of A   symmetry.
   515 basis functions,   896 primitive gaussians,   515 cartesian basis functions
   100 alpha electrons      100 beta electrons
       nuclear repulsion energy      2440.7116285613 Hartrees.
 NAtoms=   43 NActive=   43 NUniq=   43 SFac= 1.00D+00 NAtFMM=   60 NAOKFM=F Big=F
 Integral buffers will be    131072 words long.
 Raffenetti 2 integral format.
 Two-electron integral symmetry is turned on.
 ------------------------------------------------------------------------------
 Polarizable Continuum Model (PCM)
 =================================
 Model                : PCM (using non-symmetric T matrix).
 Atomic radii         : SMD-Coulomb.
 Polarization charges : Total charges.
 Charge compensation  : None.
 Solution method      : On-the-fly selection.
 Cavity type          : VdW (van der Waals Surface) (Alpha=1.000).
 Cavity algorithm     : GePol (No added spheres)
                        Default sphere list used, NSphG=   43.
                        Lebedev-Laikov grids with approx.  5.0 points / Ang**2.
                        Smoothing algorithm: York/Karplus (Gamma=1.0000).
                        Polarization charges: spherical gaussians, with
                                              point-specific exponents (IZeta= 3).
                        Self-potential: point-specific (ISelfS= 7).
                        Self-field    : sphere-specific E.n sum rule (ISelfD= 2).
 1st derivatives      : Analytical E(r).r(x)/FMM algorithm (CHGder, D1EAlg=3).
                        Cavity 1st derivative terms included.
 Solvent              : n-Pentadecane, Eps=   2.033300 Eps(inf)=   2.049192
 ------------------------------------------------------------------------------
 ------------------------------------------------------------------------------
 Atomic radii for non-electrostatic terms: SMD-CDS.
 ------------------------------------------------------------------------------
 Nuclear repulsion after PCM non-electrostatic terms =     2440.7023880899 Hartrees.
 One-electron integrals computed using PRISM.
 NBasis=   515 RedAO= T EigKep=  1.49D-06  NBF=   515
 NBsUse=   513 1.00D-06 EigRej=  6.60D-07 NBFU=   513
 ExpMin= 4.05D-02 ExpMax= 2.19D+04 ExpMxC= 3.30D+03 IAcc=3 IRadAn=         5 AccDes= 0.00D+00
 Harris functional with IExCor= 1009 and IRadAn=       5 diagonalized for initial guess.
 HarFok:  IExCor= 1009 AccDes= 0.00D+00 IRadAn=         5 IDoV= 1 UseB2=F ITyADJ=14
 ICtDFT=  3500011 ScaDFX=  1.000000  1.000000  1.000000  1.000000
 FoFCou: FMM=F IPFlag=           0 FMFlag=      100000 FMFlg1=           0
         NFxFlg=           0 DoJE=T BraDBF=F KetDBF=T FulRan=T
         wScrn=  0.000000 ICntrl=     500 IOpCl=  0 I1Cent=   200000004 NGrid=           0
         NMat0=    1 NMatS0=      1 NMatT0=    0 NMatD0=    1 NMtDS0=    0 NMtDT0=    0
 Petite list used in FoFCou.
 Requested convergence on RMS density matrix=1.00D-08 within 128 cycles.
 Requested convergence on MAX density matrix=1.00D-06.
 Requested convergence on             energy=1.00D-06.
 No special actions if energy rises.
 Inv3:  Mode=1 IEnd=    34578075.
 Iteration    1 A*A^-1 deviation from unit magnitude is 8.22D-15 for   3367.
 Iteration    1 A*A^-1 deviation from orthogonality  is 5.89D-15 for   3366   2326.
 Iteration    1 A^-1*A deviation from unit magnitude is 6.66D-15 for   3367.
 Iteration    1 A^-1*A deviation from orthogonality  is 1.50D-12 for   2485   1456.
 Error on total polarization charges =  0.02360
 SCF Done:  E(RM062X) =  -1727.28775303     A.U. after   16 cycles
            NFock= 16  Conv=0.44D-08     -V/T= 2.0071
 SMD-CDS (non-electrostatic) energy       (kcal/mol) =      -5.80
 (included in total energy above)

 **********************************************************************

            Population analysis using the SCF density.

 **********************************************************************

 Orbital symmetries:
       Occupied  (A) (A) (A) (A) (A) (A) (A) (A) (A) (A) (A) (A)
                 (A) (A) (A) (A) (A) (A) (A) (A) (A) (A) (A) (A)
                 (A) (A) (A) (A) (A) (A) (A) (A) (A) (A) (A) (A)
                 (A) (A) (A) (A) (A) (A) (A) (A) (A) (A) (A) (A)
                 (A) (A) (A) (A) (A) (A) (A) (A) (A) (A) (A) (A)
                 (A) (A) (A) (A) (A) (A) (A) (A) (A) (A) (A) (A)
                 (A) (A) (A) (A) (A) (A) (A) (A) (A) (A) (A) (A)
                 (A) (A) (A) (A) (A) (A) (A) (A) (A) (A) (A) (A)
                 (A) (A) (A) (A)
       Virtual   (A) (A) (A) (A) (A) (A) (A) (A) (A) (A) (A) (A)
                 (A) (A) (A) (A) (A) (A) (A) (A) (A) (A) (A) (A)
                 (A) (A) (A) (A) (A) (A) (A) (A) (A) (A) (A) (A)
                 (A) (A) (A) (A) (A) (A) (A) (A) (A) (A) (A) (A)
                 (A) (A) (A) (A) (A) (A) (A) (A) (A) (A) (A) (A)
                 (A) (A) (A) (A) (A) (A) (A) (A) (A) (A) (A) (A)
                 (A) (A) (A) (A) (A) (A) (A) (A) (A) (A) (A) (A)
                 (A) (A) (A) (A) (A) (A) (A) (A) (A) (A) (A) (A)
                 (A) (A) (A) (A) (A) (A) (A) (A) (A) (A) (A) (A)
                 (A) (A) (A) (A) (A) (A) (A) (A) (A) (A) (A) (A)
                 (A) (A) (A) (A) (A) (A) (A) (A) (A) (A) (A) (A)
                 (A) (A) (A) (A) (A) (A) (A) (A) (A) (A) (A) (A)
                 (A) (A) (A) (A) (A) (A) (A) (A) (A) (A) (A) (A)
                 (A) (A) (A) (A) (A) (A) (A) (A) (A) (A) (A) (A)
                 (A) (A) (A) (A) (A) (A) (A) (A) (A) (A) (A) (A)
                 (A) (A) (A) (A) (A) (A) (A) (A) (A) (A) (A) (A)
                 (A) (A) (A) (A) (A) (A) (A) (A) (A) (A) (A) (A)
                 (A) (A) (A) (A) (A) (A) (A) (A) (A) (A) (A) (A)
                 (A) (A) (A) (A) (A) (A) (A) (A) (A) (A) (A) (A)
                 (A) (A) (A) (A) (A) (A) (A) (A) (A) (A) (A) (A)
                 (A) (A) (A) (A) (A) (A) (A) (A) (A) (A) (A) (A)
                 (A) (A) (A) (A) (A) (A) (A) (A) (A) (A) (A) (A)
                 (A) (A) (A) (A) (A) (A) (A) (A) (A) (A) (A) (A)
                 (A) (A) (A) (A) (A) (A) (A) (A) (A) (A) (A) (A)
                 (A) (A) (A) (A) (A) (A) (A) (A) (A) (A) (A) (A)
                 (A) (A) (A) (A) (A) (A) (A) (A) (A) (A) (A) (A)
                 (A) (A) (A) (A) (A) (A) (A) (A) (A) (A) (A) (A)
                 (A) (A) (A) (A) (A) (A) (A) (A) (A) (A) (A) (A)
                 (A) (A) (A) (A) (A) (A) (A) (A) (A) (A) (A) (A)
                 (A) (A) (A) (A) (A) (A) (A) (A) (A) (A) (A) (A)
                 (A) (A) (A) (A) (A) (A) (A) (A) (A) (A) (A) (A)
                 (A) (A) (A) (A) (A) (A) (A) (A) (A) (A) (A) (A)
                 (A) (A) (A) (A) (A) (A) (A) (A) (A) (A) (A) (A)
                 (A) (A) (A) (A) (A) (A) (A) (A) (A) (A) (A) (A)
                 (A) (A) (A) (A) (A)
 The electronic state is 1-A.
 Alpha  occ. eigenvalues --  -90.12425 -25.29072 -25.29054 -25.29054 -19.62169
 Alpha  occ. eigenvalues --  -19.62165 -19.55310 -19.53328 -19.52805 -14.73131
 Alpha  occ. eigenvalues --  -14.70901 -10.79719 -10.62185 -10.57819 -10.57126
 Alpha  occ. eigenvalues --  -10.54578 -10.53625 -10.53561 -10.52365 -10.51333
 Alpha  occ. eigenvalues --  -10.51070 -10.49526 -10.49453 -10.48294 -10.47957
 Alpha  occ. eigenvalues --   -8.43814  -6.35971  -6.35954  -6.35848  -1.45854
 Alpha  occ. eigenvalues --   -1.36542  -1.36537  -1.21167  -1.11465  -1.10606
 Alpha  occ. eigenvalues --   -1.09419  -1.00253  -0.99614  -0.96600  -0.92776
 Alpha  occ. eigenvalues --   -0.84841  -0.83113  -0.81784  -0.80667  -0.80318
 Alpha  occ. eigenvalues --   -0.74872  -0.72200  -0.68609  -0.67980  -0.67755
 Alpha  occ. eigenvalues --   -0.67280  -0.66655  -0.63537  -0.62288  -0.60850
 Alpha  occ. eigenvalues --   -0.57502  -0.57053  -0.55936  -0.55796  -0.54888
 Alpha  occ. eigenvalues --   -0.52336  -0.52035  -0.51797  -0.51695  -0.50953
 Alpha  occ. eigenvalues --   -0.50248  -0.49806  -0.48735  -0.47961  -0.47422
 Alpha  occ. eigenvalues --   -0.46985  -0.46497  -0.46464  -0.45906  -0.44378
 Alpha  occ. eigenvalues --   -0.44111  -0.42650  -0.42457  -0.41363  -0.40088
 Alpha  occ. eigenvalues --   -0.39837  -0.39014  -0.38198  -0.38076  -0.37560
 Alpha  occ. eigenvalues --   -0.37069  -0.36259  -0.35925  -0.35212  -0.34982
 Alpha  occ. eigenvalues --   -0.34213  -0.33676  -0.33403  -0.28775  -0.28063
 Alpha  occ. eigenvalues --   -0.26277  -0.25686  -0.25520  -0.24920  -0.22035
 Alpha virt. eigenvalues --    0.02448   0.05557   0.05699   0.06644   0.06897
 Alpha virt. eigenvalues --    0.07159   0.07441   0.07663   0.08128   0.08582
 Alpha virt. eigenvalues --    0.08790   0.09340   0.09434   0.10309   0.10392
 Alpha virt. eigenvalues --    0.10798   0.10923   0.11384   0.11677   0.11917
 Alpha virt. eigenvalues --    0.12291   0.12696   0.13202   0.13524   0.13836
 Alpha virt. eigenvalues --    0.14016   0.14220   0.14919   0.15017   0.15124
 Alpha virt. eigenvalues --    0.15428   0.15639   0.16071   0.16291   0.16755
 Alpha virt. eigenvalues --    0.16981   0.17490   0.17831   0.18024   0.18630
 Alpha virt. eigenvalues --    0.19159   0.19225   0.19930   0.20201   0.20813
 Alpha virt. eigenvalues --    0.21163   0.21272   0.22279   0.22839   0.23068
 Alpha virt. eigenvalues --    0.23574   0.24074   0.24357   0.24772   0.25441
 Alpha virt. eigenvalues --    0.25954   0.26307   0.26338   0.26657   0.27109
 Alpha virt. eigenvalues --    0.27440   0.27960   0.28172   0.28318   0.28458
 Alpha virt. eigenvalues --    0.28971   0.29419   0.29604   0.29799   0.29834
 Alpha virt. eigenvalues --    0.30107   0.30382   0.30583   0.30994   0.31047
 Alpha virt. eigenvalues --    0.31325   0.31791   0.32210   0.32586   0.32927
 Alpha virt. eigenvalues --    0.33459   0.33566   0.33890   0.34299   0.34560
 Alpha virt. eigenvalues --    0.34953   0.35068   0.35198   0.36188   0.36493
 Alpha virt. eigenvalues --    0.36664   0.36824   0.37147   0.37397   0.37646
 Alpha virt. eigenvalues --    0.37842   0.38463   0.38540   0.38904   0.39127
 Alpha virt. eigenvalues --    0.39211   0.39482   0.39902   0.40424   0.40585
 Alpha virt. eigenvalues --    0.41349   0.41375   0.41708   0.42339   0.42585
 Alpha virt. eigenvalues --    0.42734   0.43025   0.43493   0.43667   0.44407
 Alpha virt. eigenvalues --    0.44663   0.44774   0.45699   0.46002   0.46261
 Alpha virt. eigenvalues --    0.46583   0.47980   0.48651   0.49328   0.49957
 Alpha virt. eigenvalues --    0.50950   0.51576   0.51754   0.52086   0.52835
 Alpha virt. eigenvalues --    0.53101   0.53893   0.54152   0.54803   0.55186
 Alpha virt. eigenvalues --    0.57418   0.58357   0.59619   0.60410   0.61857
 Alpha virt. eigenvalues --    0.62708   0.64353   0.65937   0.66177   0.66683
 Alpha virt. eigenvalues --    0.67571   0.69335   0.70000   0.73754   0.75666
 Alpha virt. eigenvalues --    0.75855   0.75877   0.76241   0.78710   0.79241
 Alpha virt. eigenvalues --    0.80159   0.80446   0.80735   0.81035   0.81752
 Alpha virt. eigenvalues --    0.81871   0.82897   0.83326   0.84788   0.86333
 Alpha virt. eigenvalues --    0.86524   0.86658   0.87232   0.87660   0.89483
 Alpha virt. eigenvalues --    0.90368   0.90691   0.91486   0.92057   0.92967
 Alpha virt. eigenvalues --    0.93845   0.94457   0.95235   0.95923   0.96007
 Alpha virt. eigenvalues --    0.98727   0.99078   0.99879   1.01695   1.03637
 Alpha virt. eigenvalues --    1.03955   1.04463   1.05073   1.06189   1.06675
 Alpha virt. eigenvalues --    1.07028   1.08267   1.10062   1.10862   1.11181
 Alpha virt. eigenvalues --    1.12903   1.13423   1.13629   1.14345   1.14907
 Alpha virt. eigenvalues --    1.15595   1.16365   1.16537   1.17956   1.18872
 Alpha virt. eigenvalues --    1.19549   1.21851   1.23327   1.23617   1.23731
 Alpha virt. eigenvalues --    1.24468   1.27935   1.28046   1.29118   1.29826
 Alpha virt. eigenvalues --    1.30905   1.32444   1.32834   1.34566   1.35566
 Alpha virt. eigenvalues --    1.36909   1.37390   1.38101   1.38691   1.39539
 Alpha virt. eigenvalues --    1.40406   1.41317   1.41825   1.42731   1.43754
 Alpha virt. eigenvalues --    1.44183   1.44740   1.45273   1.46038   1.46838
 Alpha virt. eigenvalues --    1.47122   1.47597   1.48652   1.49241   1.49814
 Alpha virt. eigenvalues --    1.50329   1.50760   1.51060   1.51430   1.53905
 Alpha virt. eigenvalues --    1.54260   1.55347   1.55764   1.56244   1.57640
 Alpha virt. eigenvalues --    1.58747   1.58969   1.59970   1.62246   1.62523
 Alpha virt. eigenvalues --    1.63423   1.64262   1.65219   1.66810   1.69574
 Alpha virt. eigenvalues --    1.70406   1.71254   1.72093   1.72612   1.73593
 Alpha virt. eigenvalues --    1.74420   1.75718   1.76520   1.77673   1.77958
 Alpha virt. eigenvalues --    1.79673   1.80031   1.80716   1.81752   1.85021
 Alpha virt. eigenvalues --    1.85367   1.86618   1.87118   1.89068   1.89548
 Alpha virt. eigenvalues --    1.90224   1.90642   1.91033   1.92220   1.92811
 Alpha virt. eigenvalues --    1.93203   1.93890   1.94507   1.95379   1.96278
 Alpha virt. eigenvalues --    1.97327   1.97462   1.99658   1.99953   2.00066
 Alpha virt. eigenvalues --    2.00709   2.01424   2.01714   2.02500   2.02905
 Alpha virt. eigenvalues --    2.03110   2.04416   2.05631   2.07640   2.08386
 Alpha virt. eigenvalues --    2.08665   2.09881   2.10702   2.11069   2.12268
 Alpha virt. eigenvalues --    2.13108   2.13322   2.13751   2.13844   2.14477
 Alpha virt. eigenvalues --    2.15104   2.15849   2.17127   2.18096   2.19332
 Alpha virt. eigenvalues --    2.19491   2.20972   2.21754   2.23432   2.23677
 Alpha virt. eigenvalues --    2.24310   2.26842   2.27145   2.27924   2.29141
 Alpha virt. eigenvalues --    2.29693   2.31596   2.32655   2.33067   2.34526
 Alpha virt. eigenvalues --    2.36921   2.37760   2.37865   2.39118   2.39910
 Alpha virt. eigenvalues --    2.41591   2.41654   2.44117   2.44296   2.45034
 Alpha virt. eigenvalues --    2.45586   2.45911   2.48950   2.50201   2.52083
 Alpha virt. eigenvalues --    2.55156   2.59758   2.60028   2.61049   2.65805
 Alpha virt. eigenvalues --    2.67714   2.70198   2.70444   2.72407   2.73565
 Alpha virt. eigenvalues --    2.77125   2.77272   2.80116   2.82674   2.83585
 Alpha virt. eigenvalues --    2.84334   2.84967   2.85734   2.87292   2.88929
 Alpha virt. eigenvalues --    2.90477   2.92115   2.97420   2.97847   3.00981
 Alpha virt. eigenvalues --    3.01613   3.05444   3.11108   3.18178   3.20529
 Alpha virt. eigenvalues --    3.23041   3.27446   3.28795   3.29399   3.30226
 Alpha virt. eigenvalues --    3.35711   3.41899   3.47752   4.06846   4.30472
 Alpha virt. eigenvalues --    4.32255   4.34492   4.37006   4.37890   4.41962
 Alpha virt. eigenvalues --    4.44320   4.48573   4.49792   4.51125   4.51877
 Alpha virt. eigenvalues --    4.53854   4.55308   4.57129   4.60681   4.64772
 Alpha virt. eigenvalues --    4.68817   4.75981   4.81560   4.83813   4.96025
 Alpha virt. eigenvalues --    5.83575   5.85250   6.48473
          Condensed to atoms (all electrons):
               1          2          3          4          5          6
     1  C    5.930822  -0.300531   0.086456  -0.031487  -0.080321  -0.001120
     2  C   -0.300531   6.515662  -0.668726  -0.060479   0.309282   0.025738
     3  C    0.086456  -0.668726   7.515250   0.312793  -0.912422  -0.135052
     4  N   -0.031487  -0.060479   0.312793   7.840023   0.437888  -0.188199
     5  C   -0.080321   0.309282  -0.912422   0.437888   7.079716   0.555520
     6  O   -0.001120   0.025738  -0.135052  -0.188199   0.555520   8.358937
     7  N   -0.001199   0.027062  -0.119888  -0.338807   0.208228  -0.052766
     8  C   -0.009301   0.024353  -0.372984  -0.155251  -0.115607  -0.404248
     9  C   -0.000601  -0.013081  -0.116688   0.015775  -0.158770   0.432339
    10  C   -0.007334   0.008672  -0.140409  -0.070242  -0.547616  -0.109861
    11  C   -0.001132   0.000908  -0.043884  -0.024257  -0.446651  -0.018596
    12  C   -0.000671  -0.000548  -0.066017   0.008422  -0.926745   0.016206
    13  C    0.001083  -0.004720   0.009599   0.045879   0.030217   0.136768
    14  H    0.458830  -0.129197   0.026287   0.000606  -0.001990   0.000002
    15  H    0.419326  -0.062583  -0.011324   0.000483   0.000962  -0.000021
    16  H    0.416043  -0.062538  -0.008750   0.000292   0.001762  -0.000014
    17  H   -0.032924   0.432416  -0.085623   0.005432  -0.000593  -0.000114
    18  H   -0.030859   0.433200  -0.088167   0.005942  -0.000817  -0.000103
    19  H   -0.012933  -0.047692   0.450980  -0.050160  -0.034102   0.000646
    20  H   -0.007903  -0.046493   0.473057  -0.048849  -0.055554   0.000345
    21  H    0.004881  -0.002470  -0.006412   0.144823  -0.019115   0.002977
    22  H   -0.000085  -0.001918  -0.002847   0.011461  -0.047009   0.003295
    23  H    0.000020   0.000031   0.003144   0.001220   0.019948  -0.006435
    24  H   -0.000005   0.000021  -0.000795   0.000982  -0.011034   0.000115
    25  H    0.000000   0.000000   0.000031   0.000020   0.002996  -0.000003
    26  S   -0.000015   0.000017  -0.002444   0.000206  -0.072333   0.000185
    27  O   -0.000000   0.000000  -0.000030  -0.000007  -0.003433   0.000009
    28  O    0.000000  -0.000000   0.000017   0.000011   0.001173  -0.000025
    29  H   -0.000000   0.000001  -0.000107  -0.000005  -0.005911   0.000305
    30  C    0.000001   0.000001   0.000201  -0.000107   0.010363   0.000087
    31  F    0.000000  -0.000000  -0.000000   0.000000  -0.000010  -0.000000
    32  F   -0.000000  -0.000000  -0.000005   0.000000  -0.000772  -0.000000
    33  F   -0.000000  -0.000000  -0.000006   0.000002  -0.001114   0.000003
    34  O    0.009513   0.006131   0.012157  -0.035030  -0.015999  -0.000190
    35  O   -0.001341  -0.006745   0.008626   0.008963  -0.007699   0.000062
    36  C   -0.006614  -0.009511   0.016460  -0.006074  -0.002035  -0.001890
    37  C    0.006171  -0.010377   0.055850  -0.034482  -0.029178  -0.001312
    38  C   -0.001029  -0.000691  -0.004787   0.003874   0.000316   0.000064
    39  H    0.000047   0.000134   0.000109  -0.000160  -0.000197  -0.000000
    40  H    0.000047   0.000116   0.000133  -0.000154  -0.000215  -0.000000
    41  H    0.000001   0.000024  -0.000016  -0.000007   0.000060  -0.000000
    42  H    0.000000   0.000003  -0.000008  -0.000006   0.000019   0.000000
    43  H    0.000001   0.000024  -0.000017  -0.000009   0.000066  -0.000000
               7          8          9         10         11         12
     1  C   -0.001199  -0.009301  -0.000601  -0.007334  -0.001132  -0.000671
     2  C    0.027062   0.024353  -0.013081   0.008672   0.000908  -0.000548
     3  C   -0.119888  -0.372984  -0.116688  -0.140409  -0.043884  -0.066017
     4  N   -0.338807  -0.155251   0.015775  -0.070242  -0.024257   0.008422
     5  C    0.208228  -0.115607  -0.158770  -0.547616  -0.446651  -0.926745
     6  O   -0.052766  -0.404248   0.432339  -0.109861  -0.018596   0.016206
     7  N    7.929498   0.053709  -0.200384  -0.098208   0.063510  -0.000163
     8  C    0.053709  23.378246   2.637538   2.792084  -7.090740  -7.375801
     9  C   -0.200384   2.637538  21.142862  -7.118114  -4.955524  -6.631574
    10  C   -0.098208   2.792084  -7.118114  20.945477   0.055218  -4.545487
    11  C    0.063510  -7.090740  -4.955524   0.055218  22.435864   2.445628
    12  C   -0.000163  -7.375801  -6.631574  -4.545487   2.445628  23.630287
    13  C    0.146767  -6.670884   1.131849  -5.321838  -7.104580   1.171533
    14  H    0.000018  -0.000034  -0.000009  -0.000001  -0.000000  -0.000000
    15  H    0.000032   0.000010  -0.000034   0.000009   0.000000  -0.000000
    16  H    0.000025   0.000033  -0.000026   0.000008   0.000000  -0.000000
    17  H   -0.000053  -0.000730  -0.000144   0.000128   0.000007  -0.000002
    18  H    0.000273  -0.001237  -0.000024   0.000042   0.000000  -0.000005
    19  H   -0.001494   0.002518  -0.002499   0.000581   0.000037   0.000025
    20  H   -0.000602  -0.003513  -0.004249   0.001064   0.000101  -0.000079
    21  H   -0.000067   0.004092  -0.007637  -0.001156  -0.000577  -0.000600
    22  H    0.082237  -0.002094   0.068517  -0.050898  -0.000834   0.016125
    23  H   -0.016297  -0.077597   0.286460  -0.012598  -0.016482   0.057725
    24  H   -0.009668  -0.057291  -0.006836   0.266402   0.035884   0.078328
    25  H    0.000299   0.048655  -0.008758   0.002908   0.304549  -0.048587
    26  S    0.004781  -0.708981  -0.149737   0.167223   0.044782  -0.042992
    27  O   -0.000298  -0.012395   0.139681  -0.169414  -0.294184  -0.319642
    28  O    0.000481   0.012242  -0.164363   0.157027   0.370188  -0.350858
    29  H   -0.000974   0.019607  -0.003999  -0.010926   0.000257  -0.028940
    30  C   -0.000551   0.235594   0.149493   0.061674   0.271811  -0.789538
    31  F    0.000001  -0.003986  -0.005162  -0.003689  -0.023021   0.085282
    32  F   -0.000037  -0.013321  -0.015263   0.005461  -0.014587   0.008487
    33  F    0.000049  -0.021598  -0.022187  -0.001954   0.022982   0.033775
    34  O    0.004125   0.013638  -0.000801  -0.029409  -0.010157  -0.001918
    35  O    0.015306  -0.301128  -0.009806   0.274968   0.025398  -0.005148
    36  C   -0.014607   0.204469  -0.009059  -0.104854  -0.100926  -0.027317
    37  C   -0.026351  -0.097818  -0.043832   0.060553   0.036190   0.000003
    38  C    0.005072  -0.041958  -0.002438   0.014825   0.032891   0.003205
    39  H    0.000139  -0.000522  -0.000073   0.000472  -0.000109  -0.000014
    40  H    0.000147  -0.000632  -0.000096   0.000579  -0.000063  -0.000011
    41  H   -0.000050   0.001197   0.000096  -0.000595  -0.001158  -0.000132
    42  H    0.000022   0.000093   0.000006  -0.000142  -0.000047  -0.000003
    43  H   -0.000058   0.001405   0.000136  -0.000567  -0.001460  -0.000178
              13         14         15         16         17         18
     1  C    0.001083   0.458830   0.419326   0.416043  -0.032924  -0.030859
     2  C   -0.004720  -0.129197  -0.062583  -0.062538   0.432416   0.433200
     3  C    0.009599   0.026287  -0.011324  -0.008750  -0.085623  -0.088167
     4  N    0.045879   0.000606   0.000483   0.000292   0.005432   0.005942
     5  C    0.030217  -0.001990   0.000962   0.001762  -0.000593  -0.000817
     6  O    0.136768   0.000002  -0.000021  -0.000014  -0.000114  -0.000103
     7  N    0.146767   0.000018   0.000032   0.000025  -0.000053   0.000273
     8  C   -6.670884  -0.000034   0.000010   0.000033  -0.000730  -0.001237
     9  C    1.131849  -0.000009  -0.000034  -0.000026  -0.000144  -0.000024
    10  C   -5.321838  -0.000001   0.000009   0.000008   0.000128   0.000042
    11  C   -7.104580  -0.000000   0.000000   0.000000   0.000007   0.000000
    12  C    1.171533  -0.000000  -0.000000  -0.000000  -0.000002  -0.000005
    13  C   22.804657  -0.000000  -0.000002  -0.000001  -0.000010  -0.000001
    14  H   -0.000000   0.495547  -0.026504  -0.026450  -0.002975  -0.002955
    15  H   -0.000002  -0.026504   0.503020  -0.032661  -0.004502   0.003779
    16  H   -0.000001  -0.026450  -0.032661   0.502721   0.003785  -0.004489
    17  H   -0.000010  -0.002975  -0.004502   0.003785   0.483734  -0.033282
    18  H   -0.000001  -0.002955   0.003779  -0.004489  -0.033282   0.482708
    19  H   -0.000217  -0.000068  -0.000340   0.002779   0.004166  -0.005434
    20  H   -0.000444  -0.000066   0.002771  -0.000323  -0.005449   0.004138
    21  H   -0.000544  -0.000000  -0.000001  -0.000001   0.000787   0.000929
    22  H    0.010849  -0.000000  -0.000000  -0.000000   0.000001   0.000001
    23  H    0.059180   0.000000  -0.000000   0.000000  -0.000000  -0.000000
    24  H   -0.013504  -0.000000   0.000000   0.000000  -0.000000  -0.000000
    25  H    0.001561  -0.000000   0.000000   0.000000  -0.000000   0.000000
    26  S   -0.929652  -0.000000  -0.000000   0.000000  -0.000000  -0.000000
    27  O    0.373664  -0.000000  -0.000000  -0.000000  -0.000000  -0.000000
    28  O   -0.321411  -0.000000  -0.000000   0.000000   0.000000  -0.000000
    29  H    0.314130  -0.000000   0.000000   0.000000   0.000000   0.000000
    30  C    0.615276   0.000000   0.000000  -0.000000   0.000000   0.000000
    31  F   -0.030037   0.000000  -0.000000   0.000000   0.000000   0.000000
    32  F   -0.024353   0.000000  -0.000000   0.000000   0.000000  -0.000000
    33  F   -0.083787   0.000000  -0.000000   0.000000   0.000000  -0.000000
    34  O    0.001637  -0.000049  -0.000011  -0.000008  -0.001884  -0.002103
    35  O    0.015872  -0.000000   0.000000   0.000000   0.000001  -0.000009
    36  C   -0.004285  -0.000160  -0.000021  -0.000019  -0.000847  -0.000980
    37  C   -0.006682   0.000088  -0.000015  -0.000018  -0.000108  -0.000183
    38  C   -0.001941  -0.000001   0.000000   0.000000  -0.000043  -0.000036
    39  H   -0.000003  -0.000000  -0.000000   0.000000  -0.000000   0.000000
    40  H   -0.000005  -0.000000   0.000000  -0.000000   0.000000  -0.000000
    41  H    0.000020   0.000000  -0.000000  -0.000000   0.000000  -0.000000
    42  H    0.000000   0.000000  -0.000000  -0.000000  -0.000000  -0.000000
    43  H    0.000023   0.000000  -0.000000  -0.000000  -0.000000   0.000000
              19         20         21         22         23         24
     1  C   -0.012933  -0.007903   0.004881  -0.000085   0.000020  -0.000005
     2  C   -0.047692  -0.046493  -0.002470  -0.001918   0.000031   0.000021
     3  C    0.450980   0.473057  -0.006412  -0.002847   0.003144  -0.000795
     4  N   -0.050160  -0.048849   0.144823   0.011461   0.001220   0.000982
     5  C   -0.034102  -0.055554  -0.019115  -0.047009   0.019948  -0.011034
     6  O    0.000646   0.000345   0.002977   0.003295  -0.006435   0.000115
     7  N   -0.001494  -0.000602  -0.000067   0.082237  -0.016297  -0.009668
     8  C    0.002518  -0.003513   0.004092  -0.002094  -0.077597  -0.057291
     9  C   -0.002499  -0.004249  -0.007637   0.068517   0.286460  -0.006836
    10  C    0.000581   0.001064  -0.001156  -0.050898  -0.012598   0.266402
    11  C    0.000037   0.000101  -0.000577  -0.000834  -0.016482   0.035884
    12  C    0.000025  -0.000079  -0.000600   0.016125   0.057725   0.078328
    13  C   -0.000217  -0.000444  -0.000544   0.010849   0.059180  -0.013504
    14  H   -0.000068  -0.000066  -0.000000  -0.000000   0.000000  -0.000000
    15  H   -0.000340   0.002771  -0.000001  -0.000000  -0.000000   0.000000
    16  H    0.002779  -0.000323  -0.000001  -0.000000   0.000000   0.000000
    17  H    0.004166  -0.005449   0.000787   0.000001  -0.000000  -0.000000
    18  H   -0.005434   0.004138   0.000929   0.000001  -0.000000  -0.000000
    19  H    0.519310  -0.047536   0.001497   0.000007  -0.000001   0.000000
    20  H   -0.047536   0.517409   0.001584   0.000006  -0.000001   0.000000
    21  H    0.001497   0.001584   0.246460   0.009421   0.000001   0.000003
    22  H    0.000007   0.000006   0.009421   0.272072  -0.000182   0.006912
    23  H   -0.000001  -0.000001   0.000001  -0.000182   0.424027  -0.000098
    24  H    0.000000   0.000000   0.000003   0.006912  -0.000098   0.422976
    25  H   -0.000000   0.000000   0.000000  -0.000007   0.000012  -0.003380
    26  S   -0.000001   0.000001  -0.000008   0.000612   0.001185   0.007323
    27  O    0.000000  -0.000000  -0.000000   0.000001   0.000025   0.000058
    28  O    0.000000  -0.000000  -0.000000   0.000001  -0.000002   0.000036
    29  H   -0.000000   0.000000  -0.000000   0.000002  -0.003478   0.000012
    30  C   -0.000000   0.000000   0.000000  -0.000023  -0.000247  -0.000569
    31  F    0.000000  -0.000000  -0.000000  -0.000000  -0.000000  -0.000000
    32  F    0.000000  -0.000000  -0.000000   0.000000   0.000001  -0.000020
    33  F    0.000000   0.000000  -0.000000   0.000000  -0.000023   0.000002
    34  O   -0.000029  -0.000082   0.083469  -0.002338   0.000002  -0.000019
    35  O   -0.000005  -0.000012  -0.000419   0.102368   0.000020  -0.002422
    36  C    0.000721   0.000860  -0.004736  -0.010763   0.000028  -0.000387
    37  C    0.000026   0.000067   0.019670   0.022165   0.000004   0.002134
    38  C    0.000002   0.000005  -0.003135  -0.002716  -0.000002  -0.000525
    39  H    0.000000  -0.000000  -0.000003  -0.000030   0.000000   0.000000
    40  H   -0.000000   0.000000  -0.000004  -0.000031   0.000000   0.000000
    41  H   -0.000000   0.000000  -0.000000  -0.000014   0.000000   0.000017
    42  H   -0.000000  -0.000000   0.000000  -0.000000  -0.000000   0.000000
    43  H    0.000000  -0.000000  -0.000000  -0.000014   0.000000   0.000015
              25         26         27         28         29         30
     1  C    0.000000  -0.000015  -0.000000   0.000000  -0.000000   0.000001
     2  C    0.000000   0.000017   0.000000  -0.000000   0.000001   0.000001
     3  C    0.000031  -0.002444  -0.000030   0.000017  -0.000107   0.000201
     4  N    0.000020   0.000206  -0.000007   0.000011  -0.000005  -0.000107
     5  C    0.002996  -0.072333  -0.003433   0.001173  -0.005911   0.010363
     6  O   -0.000003   0.000185   0.000009  -0.000025   0.000305   0.000087
     7  N    0.000299   0.004781  -0.000298   0.000481  -0.000974  -0.000551
     8  C    0.048655  -0.708981  -0.012395   0.012242   0.019607   0.235594
     9  C   -0.008758  -0.149737   0.139681  -0.164363  -0.003999   0.149493
    10  C    0.002908   0.167223  -0.169414   0.157027  -0.010926   0.061674
    11  C    0.304549   0.044782  -0.294184   0.370188   0.000257   0.271811
    12  C   -0.048587  -0.042992  -0.319642  -0.350858  -0.028940  -0.789538
    13  C    0.001561  -0.929652   0.373664  -0.321411   0.314130   0.615276
    14  H   -0.000000  -0.000000  -0.000000  -0.000000  -0.000000   0.000000
    15  H    0.000000  -0.000000  -0.000000  -0.000000   0.000000   0.000000
    16  H    0.000000   0.000000  -0.000000   0.000000   0.000000  -0.000000
    17  H   -0.000000  -0.000000  -0.000000   0.000000   0.000000   0.000000
    18  H    0.000000  -0.000000  -0.000000  -0.000000   0.000000   0.000000
    19  H   -0.000000  -0.000001   0.000000   0.000000  -0.000000  -0.000000
    20  H    0.000000   0.000001  -0.000000  -0.000000   0.000000   0.000000
    21  H    0.000000  -0.000008  -0.000000  -0.000000  -0.000000   0.000000
    22  H   -0.000007   0.000612   0.000001   0.000001   0.000002  -0.000023
    23  H    0.000012   0.001185   0.000025  -0.000002  -0.003478  -0.000247
    24  H   -0.003380   0.007323   0.000058   0.000036   0.000012  -0.000569
    25  H    0.441684  -0.003971   0.003479   0.000574  -0.000126   0.001128
    26  S   -0.003971  16.995050   0.440491   0.431272   0.016693  -1.397166
    27  O    0.003479   0.440491   8.620542  -0.175403   0.000748  -0.147582
    28  O    0.000574   0.431272  -0.175403   8.633961   0.004501  -0.128701
    29  H   -0.000126   0.016693   0.000748   0.004501   0.445666  -0.001506
    30  C    0.001128  -1.397166  -0.147582  -0.128701  -0.001506   5.916186
    31  F   -0.000043   0.003474  -0.002615  -0.003462  -0.000039   0.126268
    32  F   -0.000297   0.018044   0.008499   0.016559   0.000011   0.120994
    33  F   -0.000007   0.051359   0.017636   0.006144  -0.000093   0.110138
    34  O    0.000000  -0.000059  -0.000000  -0.000000  -0.000000   0.000002
    35  O    0.000132   0.000466  -0.000017   0.000001  -0.000001  -0.000058
    36  C    0.000052  -0.000523  -0.000033  -0.000010  -0.000002   0.000033
    37  C   -0.000002  -0.000598  -0.000005  -0.000000  -0.000000   0.000060
    38  C   -0.000049   0.000233   0.000005  -0.000001   0.000000  -0.000030
    39  H   -0.000000  -0.000000  -0.000000  -0.000000   0.000000   0.000000
    40  H   -0.000000  -0.000000  -0.000000  -0.000000   0.000000   0.000000
    41  H    0.000000  -0.000003  -0.000000   0.000000  -0.000000   0.000000
    42  H    0.000000   0.000000   0.000000  -0.000000   0.000000   0.000000
    43  H    0.000000  -0.000002  -0.000000   0.000000  -0.000000   0.000000
              31         32         33         34         35         36
     1  C    0.000000  -0.000000  -0.000000   0.009513  -0.001341  -0.006614
     2  C   -0.000000  -0.000000  -0.000000   0.006131  -0.006745  -0.009511
     3  C   -0.000000  -0.000005  -0.000006   0.012157   0.008626   0.016460
     4  N    0.000000   0.000000   0.000002  -0.035030   0.008963  -0.006074
     5  C   -0.000010  -0.000772  -0.001114  -0.015999  -0.007699  -0.002035
     6  O   -0.000000  -0.000000   0.000003  -0.000190   0.000062  -0.001890
     7  N    0.000001  -0.000037   0.000049   0.004125   0.015306  -0.014607
     8  C   -0.003986  -0.013321  -0.021598   0.013638  -0.301128   0.204469
     9  C   -0.005162  -0.015263  -0.022187  -0.000801  -0.009806  -0.009059
    10  C   -0.003689   0.005461  -0.001954  -0.029409   0.274968  -0.104854
    11  C   -0.023021  -0.014587   0.022982  -0.010157   0.025398  -0.100926
    12  C    0.085282   0.008487   0.033775  -0.001918  -0.005148  -0.027317
    13  C   -0.030037  -0.024353  -0.083787   0.001637   0.015872  -0.004285
    14  H    0.000000   0.000000   0.000000  -0.000049  -0.000000  -0.000160
    15  H   -0.000000  -0.000000  -0.000000  -0.000011   0.000000  -0.000021
[...]
 0000032,-0.00001203,-0.00000991,-0.00000038,-0.00000197,0.00000019,0.0
 0000071,-0.00000239,0.00000144,-0.00000302,-0.00000148,-0.00000055,0.0
 0000049,0.00000675,0.00000230,0.00000187,0.00000848,0.00000415,-0.0000
 0456,-0.00000024,0.00000047,0.00000168,0.00000148,0.00000119,-0.000005
 10,-0.00002081,-0.00018827,-0.00000448,-0.00002226,0.00030466,-0.00009
 842,-0.00000450,-0.00000279,0.00000339,0.00000902,0.00003421,0.0000162
 8,0.00000755,0.00000893,0.00000563,0.00001373,0.00003111,0.00001235,-0
 .00000454,-0.00001130,-0.00000584,-0.00000610,-0.00002225,-0.00000503,
 -0.00000123,-0.00000070,0.00000178,0.00000955,0.00003450,0.00000116,-0
 .00000884,-0.00000673,0.00000146,-0.00000371,-0.00002200,-0.00000637,0
 .00000099,-0.00000790,0.00000252,0.00087403,0.00130022,-0.00122682,0.0
 0071576,-0.00200114,-0.00007551,-0.00406833,-0.00052939,0.00201577,-0.
 14075431,-0.01601965,0.12729331,-0.01762006,-0.00288121,0.02374891,0.0
 0885144,0.00219796,-0.01192890,0.15497549,0.00000269,0.00000427,-0.000
 00340,0.00000729,-0.00001207,0.00001709,-0.00004029,0.00002832,-0.0000
 0572,0.00007832,0.00006988,0.00002690,-0.00028520,0.00009633,-0.000020
 54,0.00008688,-0.00013365,0.00001712,-0.00006514,-0.00064967,0.0002898
 6,0.00028668,0.00002615,0.00001295,-0.00007227,-0.00005190,-0.00000146
 ,-0.00009907,0.00007811,-0.00001923,0.00004661,0.00000737,0.00000402,-
 0.00009036,-0.00003358,-0.00000467,0.00003318,-0.00001971,0.00000757,0
 .00000501,0.00000050,0.00000299,-0.00000074,0.00000091,-0.00000252,0.0
 0000141,-0.00000407,0.00000096,-0.00000312,0.00000119,-0.00000738,-0.0
 0000505,0.00000055,0.00000069,0.00000513,-0.00000957,0.00000080,0.0000
 1150,-0.00000409,0.00000205,-0.00004472,-0.00001536,-0.00012171,0.0000
 0285,0.00102236,-0.00053473,0.00000336,0.00000170,0.00000110,0.0000923
 0,0.00001139,0.00000277,-0.00000644,-0.00000239,0.00000173,0.00011613,
 0.00001431,0.00000802,-0.00003325,0.00001396,-0.00000801,-0.00002574,-
 0.00001819,0.00000272,-0.00000498,-0.00000128,0.00000189,0.00000745,-0
 .00001637,-0.00002940,-0.00001993,0.00000043,0.00001515,-0.00000281,0.
 00001006,0.00000806,-0.00000385,0.00000197,0.00000520,0.00089119,-0.00
 000627,-0.00368235,-0.00152358,-0.00719902,-0.00219848,-0.01977283,-0.
 00065882,0.02973742,-0.01634455,-0.04831113,0.02668863,0.00907393,0.00
 084404,-0.01191603,0.01015058,0.00182848,-0.01351199,0.01596223,0.0532
 8414,0.00000095,0.00000267,0.00000473,-0.00001341,0.00000446,-0.000024
 54,0.00007449,-0.00002892,0.00000661,-0.00006683,0.00004280,-0.0000060
 8,0.00017302,-0.00008910,0.00001796,-0.00005312,0.00010059,-0.00002125
 ,0.00002400,0.00031983,-0.00007956,-0.00014543,-0.00001197,-0.00000627
 ,0.00003990,0.00003098,-0.00000364,0.00004973,-0.00004733,0.00001276,-
 0.00003293,-0.00001054,0.00000200,0.00005944,0.00002954,0.00000150,-0.
 00001772,0.00001556,-0.00000495,-0.00001665,-0.00000094,-0.00000365,0.
 00000119,-0.00000355,0.00000521,-0.00000147,0.00000154,-0.00000145,0.0
 0001299,0.00000422,-0.00000600,0.00000900,0.00001023,0.00001366,-0.000
 01226,0.00000885,0.00000122,-0.00001463,0.00000057,-0.00000187,0.00001
 901,-0.00008593,0.00004469,-0.00001055,-0.00050368,0.00013794,-0.00000
 020,-0.00000091,-0.00000168,-0.00005006,-0.00001164,-0.00000555,-0.000
 00169,-0.00000237,-0.00000196,-0.00010225,-0.00003640,-0.00000637,0.00
 003056,-0.00000137,0.00000529,0.00002590,0.00002996,-0.00000192,0.0000
 0278,0.00000100,-0.00000055,-0.00002079,-0.00001203,0.00002501,0.00002
 629,0.00000514,-0.00001474,0.00000655,0.00000774,-0.00000249,0.0000040
 2,0.00000401,-0.00000687,-0.00185715,0.00068904,0.00161233,-0.00037293
 ,0.00186098,0.00002876,0.00557205,-0.00295604,-0.00569596,0.12612250,0
 .02410151,-0.21651149,-0.00554495,-0.00102771,0.00690862,0.01489261,0.
 00341503,-0.02083639,-0.13797882,-0.02577476,0.23236616,0.00000298,0.0
 0000008,-0.00000273,0.00000011,-0.00000149,0.00001489,-0.00000373,0.00
 000229,0.00000678,0.00003807,0.00007647,-0.00004766,-0.00009503,-0.000
 00252,0.00001388,0.00002508,0.00001254,-0.00001155,0.00000989,-0.00004
 268,-0.00000975,0.00001460,-0.00000233,0.00000782,-0.00000252,0.000002
 73,-0.00000313,-0.00001249,-0.00000190,-0.00001301,0.00001214,-0.00000
 248,-0.00000168,-0.00000640,-0.00000283,-0.00000224,-0.00000008,-0.000
 00017,-0.00000130,0.00000337,-0.00000025,0.00000248,-0.00000269,0.0000
 0428,-0.00000514,-0.00000062,0.,0.00000070,-0.00000194,-0.00000344,0.0
 0000727,0.00000241,-0.00000585,-0.00001266,0.00000085,0.00000028,-0.00
 000068,0.00000079,0.00000667,-0.00000513,-0.00000950,-0.00010997,0.000
 04419,0.00001407,0.00007039,0.00000406,-0.00000128,0.00000079,0.000002
 72,0.00002182,0.00002033,0.00001809,-0.00000381,-0.00000434,0.00000340
 ,0.00000960,-0.00000318,0.00001906,-0.00000458,0.00000668,-0.00000950,
 -0.00000156,-0.00000230,-0.00000548,-0.00000069,0.00000078,0.00000092,
 0.00000801,0.00000729,0.00001459,-0.00000314,-0.00000168,-0.00000268,-
 0.00000211,-0.00000646,-0.00000655,-0.00000371,0.00000092,-0.00000780,
 0.00072899,0.00042427,-0.00037550,0.00170694,0.00024999,-0.00066024,-0
 .00146430,-0.00199159,0.00078648,-0.01868524,-0.00240103,0.02531049,-0
 .14156003,-0.01519047,0.12900358,0.00097424,-0.00082138,-0.00008349,-0
 .00503435,0.00294641,-0.00197166,0.15595919,0.00000083,-0.00000206,0.0
 0000132,-0.00000346,0.00000515,-0.00000286,0.00004010,-0.00001906,0.00
 000750,-0.00005034,0.00002835,-0.00000464,0.00012604,-0.00008277,0.000
 02164,-0.00003667,0.00008045,-0.00001959,0.00000729,0.00020904,-0.0000
 5630,-0.00004989,0.00001163,0.00000228,0.00001452,0.00002192,-0.000006
 29,0.00000627,-0.00005613,0.00002649,-0.00003022,-0.00000690,0.0000038
 4,0.00005296,0.00003375,-0.00000376,-0.00000287,0.00001938,-0.00000507
 ,-0.00000558,-0.00000087,-0.00000002,-0.00000039,0.00000130,-0.0000008
 3,-0.00000112,0.00000182,-0.00000018,0.00000520,0.00000018,0.00000340,
 0.00000373,-0.00000116,-0.00000153,-0.00000746,0.00000721,0.00000027,-
 0.00000669,0.00000458,-0.00000428,0.00002162,-0.00007816,0.00002032,-0
 .00003447,-0.00035068,0.00008271,0.00000198,0.00000256,-0.00000157,-0.
 00003348,-0.00006283,-0.00002857,-0.00001172,-0.00000737,-0.00000227,-
 0.00012095,-0.00003262,-0.00000149,0.00003851,-0.00000344,0.00000406,0
 .00003195,0.00002990,-0.00000395,0.00000152,0.00000161,-0.00000012,-0.
 00002583,-0.00000404,0.00003670,0.00003127,0.00000396,-0.00001904,0.00
 000831,0.00000178,-0.00000798,0.00000535,0.00000280,-0.00001032,-0.000
 76137,0.00008488,0.00007741,-0.00057950,0.00009066,0.00037473,0.001546
 73,0.00047267,-0.00088073,0.00783739,0.00108991,-0.01157870,-0.0162273
 6,-0.04971116,0.02135098,-0.00071427,0.00039801,0.00021321,0.00267285,
 -0.00084837,0.00065389,0.01523123,0.04941768,-0.00000281,-0.00000233,0
 .00000121,-0.00000015,0.00000908,-0.00000687,0.00000967,-0.00000504,-0
 .00000155,-0.00007685,-0.00006941,0.00002653,0.00015543,-0.00001505,0.
 00000654,-0.00004015,-0.00000199,0.00000290,-0.00012612,0.00001581,-0.
 00000052,0.00014715,0.00004232,-0.00000834,-0.00003261,-0.00000943,0.0
 0000310,-0.00007197,-0.00000768,0.00001149,0.00002777,-0.00000193,0.00
 000733,-0.00003029,0.00001400,-0.00000431,0.00002713,0.00001029,-0.000
 00108,-0.00000282,0.00000014,-0.00000088,0.00000124,-0.00000102,0.0000
 0294,0.00000084,-0.00000034,-0.00000123,0.,-0.00000044,-0.00000277,-0.
 00000091,-0.00000007,0.00000502,-0.00000331,0.00000104,-0.00000118,-0.
 00000284,-0.00000061,0.00000221,0.00001822,0.00007714,-0.00003046,-0.0
 0000327,-0.00002018,-0.00001557,0.00000706,0.00000562,-0.00000277,0.00
 002676,-0.00008360,-0.00000528,-0.00002145,-0.00002035,-0.00000414,-0.
 00000629,-0.00005776,0.00000156,0.00000230,0.00002833,-0.00000193,0.00
 000832,0.00003574,0.00000220,-0.00000054,0.00000143,-0.00000111,-0.000
 01369,-0.00005383,0.00001081,0.00001329,0.00001041,-0.00000477,0.00000
 510,0.00003220,0.00000490,-0.00000427,0.00001439,-0.00001183,-0.000357
 94,-0.00055478,-0.00000669,-0.00158832,0.00044353,-0.00002097,0.001493
 05,0.00136315,-0.00000773,-0.00482300,-0.00126530,0.00647216,0.1300781
 4,0.01958360,-0.22546939,0.00048435,-0.00041821,0.00080860,-0.00159060
 ,0.00102003,0.00110225,-0.14076133,-0.02383613,0.24201426,0.00000915,0
 .00000555,-0.00000033,-0.00001252,-0.00000943,0.00000014,0.00006477,-0
 .00001650,0.00001029,0.00012507,0.00037229,-0.00009695,-0.00028694,-0.
 00006641,-0.00000182,0.00007155,0.00010954,-0.00002475,0.00015934,0.00
 003471,-0.00000167,-0.00017473,-0.00005326,0.00000469,0.00004289,0.000
 02938,-0.00000482,0.00006778,-0.00000155,0.00000308,-0.00001558,-0.000
 00599,0.00000001,0.00003967,-0.00000051,0.00000441,-0.00003177,-0.0000
 0360,-0.00000151,-0.00000627,-0.00000175,0.00000009,-0.00000447,0.0000
 0412,-0.00000414,-0.00000498,0.00000573,0.00000064,0.00001138,0.000000
 81,0.00001976,0.00001351,-0.00000854,-0.00001550,-0.00001013,0.0000152
 3,0.00000080,-0.00000922,0.00001184,-0.00000976,-0.00005098,-0.0005562
 4,0.00015275,-0.00001793,-0.00008146,0.00002153,-0.00000890,-0.0000062
 2,0.00000083,-0.00002753,0.00003860,-0.00000869,0.00001312,0.00000662,
 -0.00000082,-0.00001341,0.00000872,-0.00000387,0.00000060,-0.00000855,
 0.00000272,-0.00000110,-0.00000634,-0.00000036,0.00000112,-0.00000024,
 0.00000008,0.00000908,0.00001473,0.00000080,-0.00000343,-0.00000258,-0
 .00000024,-0.00000268,-0.00000852,-0.00000146,-0.00000011,-0.00000319,
 0.00000201,-0.00104616,0.00361755,-0.00088853,0.00212515,-0.00011853,0
 .00014615,-0.00678009,-0.00307256,0.00007006,0.00383726,0.03261775,-0.
 00734778,-0.05034970,-0.02450441,0.00563781,0.00119583,-0.00082437,-0.
 00005317,0.00117112,-0.00060874,0.00062495,-0.00182590,-0.01898604,0.0
 0209374,0.05377319,-0.00001202,-0.00000257,-0.00000053,0.00001372,0.00
 000715,0.00000179,-0.00011687,0.00004630,-0.00002325,-0.00004395,-0.00
 036781,0.00010240,0.00009892,0.00022704,-0.00005584,-0.00001351,-0.000
 24697,0.00006693,-0.00020788,-0.00036151,0.00008669,0.00029164,0.00005
 039,0.00000255,-0.00008042,-0.00007363,0.00001423,-0.00010144,0.000081
 65,-0.00002001,0.00006945,0.00003277,0.00000146,-0.00013798,-0.0000566
 3,-0.00000222,0.00004872,-0.00002806,0.00001246,0.00001241,0.00000501,
 -0.00000069,0.00000617,-0.00000709,0.00000865,0.00000704,-0.00001074,-
 0.00000268,-0.00001666,-0.00000217,-0.00002729,-0.00001928,0.00001017,
 0.00002129,0.00001825,-0.00002614,-0.00000346,0.00001677,-0.00001915,0
 .00001888,-0.00001835,0.00063092,-0.00017422,0.00009214,0.00065954,-0.
 00016496,0.00000748,0.00000316,-0.00000115,0.00008038,0.00004489,-0.00
 001769,0.00000681,0.00000471,-0.00000135,0.00023674,0.00005447,-0.0000
 0075,-0.00007280,0.00001354,-0.00000718,-0.00005831,-0.00004791,0.0000
 1018,-0.00000288,-0.00000257,-0.00000050,0.00004093,-0.00000805,-0.000
 06811,-0.00005587,-0.00000504,0.00003577,-0.00001238,0.00000550,0.0000
 1585,-0.00001000,-0.00000162,0.00001669,0.00172291,-0.00233705,0.00063
 667,0.00074327,-0.00111053,0.00047745,0.00074045,0.00263062,-0.0003196
 7,-0.00332653,-0.01147744,0.00218567,-0.02384373,-0.29822799,0.0566317
 6,0.00014911,0.00056149,0.00038622,0.00013506,0.00018665,-0.00050796,-
 0.00053586,-0.00179448,0.00039807,0.02532673,0.32488681,0.00000388,0.0
 0000079,-0.00000045,-0.00000474,-0.00000143,0.00000379,0.00003563,-0.0
 0001329,0.00000755,0.00002154,0.00012727,-0.00003246,-0.00004871,-0.00
 006689,0.00001136,0.00000919,0.00007467,-0.00001859,0.00006681,0.00010
 385,-0.00001021,-0.00008896,-0.00001754,-0.00000488,0.00002421,0.00002
 200,-0.00000381,0.00003023,-0.00001876,0.00002164,-0.00001960,-0.00000
 771,0.00000556,0.00003949,0.00001493,-0.00000041,-0.00001502,0.0000077
 0,-0.00000286,-0.00000364,-0.00000117,0.00000118,-0.00000191,0.0000029
 8,-0.00000341,-0.00000227,0.00000241,0.00000062,0.00000577,0.00000052,
 0.00000812,0.00000565,-0.00000394,-0.00000808,-0.00000588,0.00000770,0
 .00000081,-0.00000477,0.00000633,-0.00000620,0.00000089,-0.00021102,0.
 00005682,-0.00002630,-0.00018451,0.00003212,-0.00000260,-0.00000134,-0
 .00000010,-0.00002012,-0.00002202,-0.00003375,-0.00000094,-0.00000218,
 -0.00000392,-0.00006410,-0.00001482,-0.00000296,0.00001932,-0.00000415
 ,0.00000352,0.00001534,0.00001314,-0.00000213,0.00000089,0.00000065,0.
 00000003,-0.00001308,-0.00000216,0.00001746,0.00001627,0.00000209,-0.0
 0000972,0.00000419,0.00000133,-0.00000332,0.00000297,0.00000117,-0.000
 00425,-0.00055314,0.00090194,-0.00021352,-0.00008393,0.00051532,0.0005
 1409,-0.00074741,-0.00068997,0.00068674,0.00133631,0.00545269,-0.00225
 095,0.00549812,0.05651325,-0.06338749,0.00026332,0.00014335,-0.0001496
 1,-0.00011446,-0.00043107,0.00026771,0.00093062,0.02642502,-0.00485910
 ,-0.00523393,-0.06355001,0.06203674,0.00000213,0.00000119,0.00000342,0
 .00000131,-0.00000759,-0.00001523,0.00000600,-0.00000504,-0.00000371,0
 .00001378,0.00008492,0.00000539,-0.00004769,-0.00002806,-0.00001411,0.
 00001148,0.00003073,0.00000052,-0.00000993,0.00001202,0.00001735,0.000
 02860,0.00000424,-0.00000358,-0.00000431,0.00000578,0.00000001,-0.0000
 2135,-0.00000791,0.00000312,0.00001303,-0.00000299,0.00000427,-0.00000
 486,0.00000436,-0.00000159,0.00000352,0.00000470,0.00000048,0.00000205
 ,-0.00000161,-0.00000184,-0.00000043,-0.00000057,-0.00000036,-0.000003
 10,0.00000642,0.00000138,0.00000164,0.00000121,0.00001413,0.00000005,-
 0.00000569,-0.00000321,-0.00000109,0.00000921,0.00000061,-0.00000100,0
 .00000125,-0.00000007,-0.00000093,-0.00012062,0.00001761,0.00000556,-0
 .00001304,-0.00001434,0.00000019,0.00000070,-0.00000276,0.00001744,-0.
 00000879,-0.00000230,-0.00000866,-0.00000871,0.00000293,-0.00000604,-0
 .00002550,0.00000111,0.00000141,0.00001165,-0.00000233,0.00000344,0.00
 001491,0.00000110,-0.00000027,0.00000079,-0.00000107,-0.00000536,-0.00
 001392,0.00000484,0.00000548,0.00000299,-0.00000241,0.00000170,0.00000
 875,0.00000090,-0.00000071,0.00000400,-0.00000367,0.00040836,0.0005094
 8,0.00025437,0.00079893,0.00011993,0.00076711,-0.00079447,-0.00188010,
 0.00006700,-0.01397099,-0.01435122,-0.02448709,-0.10051883,-0.05582452
 ,-0.09211365,-0.00526753,0.00326741,-0.00079675,0.00093017,-0.00075849
 ,0.00051354,0.00919257,0.01000401,0.01496200,-0.00204706,-0.00117836,-
 0.00127514,0.11126578,0.00000174,-0.00000091,0.00000038,-0.00000263,0.
 00000010,-0.00000269,0.00002969,-0.00001375,0.00000581,-0.00001039,0.0
 0005546,-0.00001683,0.00004013,-0.00005818,0.00002417,-0.00001376,0.00
 006650,-0.00002038,0.00005514,0.00017140,-0.00003275,-0.00009726,-0.00
 001152,-0.00001452,0.00002561,0.00002251,-0.00000145,0.00003386,-0.000
 04279,0.00000903,-0.00003443,-0.00000654,-0.00000300,0.00005324,0.0000
 2207,0.00000334,-0.00001343,0.00001147,-0.00000541,-0.00000340,-0.0000
 0095,-0.00000027,-0.00000110,0.00000109,-0.00000114,-0.00000102,0.0000
 0236,0.00000065,0.00000293,0.00000096,0.00000417,0.00000439,-0.0000015
 6,-0.00000279,-0.00000476,0.00000594,0.00000086,-0.00000485,0.00000415
 ,-0.00000398,0.00001115,-0.00010195,0.00002559,-0.00002896,-0.00029186
 ,0.00006074,-0.00000140,-0.00000018,0.00000017,-0.00003794,-0.00000259
 ,0.00002110,-0.00000140,0.00000095,-0.00000149,-0.00009366,-0.00000698
 ,-0.00001127,0.00003043,-0.00001351,0.00000962,0.00002236,0.00001346,-
 0.00000081,0.00000135,0.00000067,-0.00000025,-0.00001330,0.00000745,0.
 00001703,0.00001846,0.00000078,-0.00001072,0.00000416,-0.00000393,-0.0
 0000383,0.00000522,-0.00000191,-0.00000068,-0.00039818,0.00023530,-0.0
 0026853,-0.00017865,-0.00105931,-0.00014602,0.00052238,0.00019862,0.00
 087287,0.00621534,0.00700447,0.01163019,-0.05709650,-0.10678424,-0.098
 88175,0.00283348,-0.00081057,0.00101217,-0.00081151,0.00046244,-0.0002
 2700,0.00206977,0.00104093,0.00331916,-0.01326437,-0.01392763,-0.02509
 712,0.06013207,0.11381179,0.00000251,0.00000354,0.00000041,0.00000235,
 -0.00001414,-0.00000405,-0.00002282,0.00000922,-0.00000977,0.00008953,
 0.00007700,0.00000707,-0.00019951,0.00003408,-0.00003863,0.00005253,-0
 .00002054,0.00001776,0.00010912,-0.00008839,0.00004677,-0.00010678,-0.
 00004027,0.00000498,0.00002218,0.00000153,0.00000013,0.00005451,0.0000
 3684,0.00002112,-0.00001114,0.00000765,0.00000805,0.00000448,-0.000024
 70,0.00000869,-0.00002271,-0.00001535,0.00000581,0.00000521,-0.0000004
 4,-0.00000059,-0.00000021,-0.00000128,-0.00000067,-0.00000190,0.000003
 07,0.00000195,-0.00000050,0.00000315,0.00000601,-0.00000202,-0.0000017
 4,-0.00000142,0.00000456,0.00000144,0.00000183,0.00000598,-0.00000363,
 0.00000239,-0.00002317,-0.00006751,0.00000275,0.00001866,0.00014666,-0
 .00006177,-0.00000694,-0.00000697,-0.00000214,0.00000086,0.00006728,-0
 .00007509,0.00002326,0.00001408,-0.00001343,0.00005243,0.00005374,-0.0
 0004082,-0.00001494,-0.00002469,0.00002092,-0.00002038,-0.00003188,0.0
 0001248,0.00000023,-0.00000227,-0.00000124,0.00001203,0.00000857,-0.00
 005141,-0.00001985,-0.00000368,0.00001825,-0.00000388,-0.00000073,0.00
 001437,0.00000374,-0.00000861,0.00002482,0.00069972,0.00053343,-0.0000
 9243,0.00200477,0.00011285,0.00073773,-0.00209539,-0.00178802,0.000071
 60,-0.00167502,-0.00163563,-0.00388381,-0.09268936,-0.09714210,-0.2093
 6098,-0.00095941,0.00068478,0.00129322,-0.00010637,0.00039772,0.000680
 79,-0.01219115,-0.01282956,-0.02001554,0.00490276,0.00381788,0.0073363
 2,0.10210201,0.10773765,0.22330760\\-0.00000195,0.00000021,-0.00000314
 ,0.00000143,-0.00000131,-0.00000300,-0.00000349,0.00000096,-0.00000582
 ,-0.00000004,0.00000122,0.00001298,0.00000936,-0.00001438,-0.00000139,
 0.00000049,0.00000833,-0.00000297,-0.00001029,0.00000140,0.00000276,0.
 00000880,0.00000324,-0.00000470,-0.00000522,-0.00000292,0.00000286,-0.
 00000495,0.00000163,0.00000246,0.00000577,0.00000155,0.00000321,-0.000
 01301,-0.00000364,0.00000037,0.00000802,-0.00000032,0.00000094,-0.0000
 0018,0.00000002,-0.00000417,0.00000118,-0.00000008,-0.00000327,0.00000
 009,0.00000018,-0.00000374,-0.00000054,0.00000032,-0.00000201,0.000001
 23,-0.00000232,-0.00000350,0.00000151,-0.00000067,-0.00000318,0.000000
 05,-0.00000070,-0.00000264,0.00000344,0.00000674,-0.00000728,0.0000018
 0,0.00000192,0.00000041,0.00000053,0.00000041,-0.00000004,-0.00000005,
 -0.00000059,0.00000142,-0.00000067,-0.00000044,0.00000178,0.00000715,0
 .00000217,0.00000578,-0.00000075,-0.00000073,0.00000285,0.00000034,0.0
 0000012,0.00000169,-0.00000058,-0.00000013,0.00000129,0.00000282,-0.00
 000210,-0.00000317,0.00000324,0.00000093,0.00000686,0.00000004,-0.0000
 0156,0.00000583,-0.00000199,0.00000240,0.00000375,-0.00000741,-0.00000
 512,-0.00000094,-0.00000561,0.00000209,-0.00000778,0.00000567,-0.00000
 006,0.00000277,-0.00000336,0.00000459,0.00000873,0.00000086,-0.0000020
 7,-0.00000248,0.00000069,-0.00000134,-0.00000350,-0.00000141,-0.000001
 55,-0.00000410,-0.00000164,0.00000199,0.00000143,-0.00000104,-0.000000
 25,0.00000183,-0.00000030,-0.00000014,0.00000082\\\@


 SLITHERY-DITHERY
 FRIEDRICH A. KEKULE
 DREAMT ON A BUS OF THINGS
 FREUD WOULD THINK KEEN.
 MOST OF THE TIME THEY WERE
 HERPETOLOGICAL
 BITING THEIR TAILS IN THE
 SHAPE OF BENZENE.
 Job cpu time:       0 days  8 hours 32 minutes 20.9 seconds.
 File lengths (MBytes):  RWF=   1472 Int=      0 D2E=      0 Chk=     34 Scr=      1
 Normal termination of Gaussian 09 at Tue Feb 19 19:40:44 2019.
WARNING: pbs_rusage is deprecated and values produced may not be accurate


=============================================================================
                                     Resource usage:
                                       CPU time:              23:39:23
   JobId:    5892856.r-man2            Elapsed time:          02:59:12
   Project:             q95            Requested time:        50:00:00
   Service Units:     23.89 
                                       Max physical memory:     1576MB
                                       Max virtual memory:      3431MB
                                       Requested memory:           0MB

                                       Number of cpus:               8

                                       Max jobfs disk use:       1.4GB
                                       Requested jobfs:         24.0GB
=============================================================================

