 Entering Gaussian System, Link 0=/apps/gaussian/g09e01/g09/g09
 AtFile(1): /home/507/hio507/Basis/6-31pGd.gbs
 Initial command:
 /apps/gaussian/g09e01/g09/l1.exe "/jobfs/local/6063524.r-man2/Gau-32504.inp" -scrdir="/jobfs/local/6063524.r-man2/"
 Entering Link 1 = /apps/gaussian/g09e01/g09/l1.exe PID=     32505.
  
 Copyright (c) 1988,1990,1992,1993,1995,1998,2003,2009,2015,
            Gaussian, Inc.  All Rights Reserved.
  
 This is part of the Gaussian(R) 09 program.  It is based on
 the Gaussian(R) 03 system (copyright 2003, Gaussian, Inc.),
 the Gaussian(R) 98 system (copyright 1998, Gaussian, Inc.),
 the Gaussian(R) 94 system (copyright 1995, Gaussian, Inc.),
 the Gaussian 92(TM) system (copyright 1992, Gaussian, Inc.),
 the Gaussian 90(TM) system (copyright 1990, Gaussian, Inc.),
 the Gaussian 88(TM) system (copyright 1988, Gaussian, Inc.),
 the Gaussian 86(TM) system (copyright 1986, Carnegie Mellon
 University), and the Gaussian 82(TM) system (copyright 1983,
 Carnegie Mellon University). Gaussian is a federally registered
 trademark of Gaussian, Inc.
  
 This software contains proprietary and confidential information,
 including trade secrets, belonging to Gaussian, Inc.
  
 This software is provided under written license and may be
 used, copied, transmitted, or stored only in accord with that
 written license.
  
 The following legend is applicable only to US Government
 contracts under FAR:
  
                    RESTRICTED RIGHTS LEGEND
  
 Use, reproduction and disclosure by the US Government is
 subject to restrictions as set forth in subparagraphs (a)
 and (c) of the Commercial Computer Software - Restricted
 Rights clause in FAR 52.227-19.
  
 Gaussian, Inc.
 340 Quinnipiac St., Bldg. 40, Wallingford CT 06492
  
  
 ---------------------------------------------------------------
 Warning -- This program may not be used in any manner that
 competes with the business of Gaussian, Inc. or will provide
 assistance to any competitor of Gaussian, Inc.  The licensee
 of this program is prohibited from giving any competitor of
 Gaussian, Inc. access to this program.  By using this program,
 the user acknowledges that Gaussian, Inc. is engaged in the
 business of creating and licensing software in the field of
 computational chemistry and represents and warrants to the
 licensee that it is not a competitor of Gaussian, Inc. and that
 it will not use this program in any manner prohibited above.
 ---------------------------------------------------------------
  

 Cite this work as:
 Gaussian 09, Revision E.01,
 M. J. Frisch, G. W. Trucks, H. B. Schlegel, G. E. Scuseria, 
 M. A. Robb, J. R. Cheeseman, G. Scalmani, V. Barone, B. Mennucci, 
 G. A. Petersson, H. Nakatsuji, M. Caricato, X. Li, H. P. Hratchian, 
 A. F. Izmaylov, J. Bloino, G. Zheng, J. L. Sonnenberg, M. Hada, 
 M. Ehara, K. Toyota, R. Fukuda, J. Hasegawa, M. Ishida, T. Nakajima, 
 Y. Honda, O. Kitao, H. Nakai, T. Vreven, J. A. Montgomery, Jr., 
 J. E. Peralta, F. Ogliaro, M. Bearpark, J. J. Heyd, E. Brothers, 
 K. N. Kudin, V. N. Staroverov, T. Keith, R. Kobayashi, J. Normand, 
 K. Raghavachari, A. Rendell, J. C. Burant, S. S. Iyengar, J. Tomasi, 
 M. Cossi, N. Rega, J. M. Millam, M. Klene, J. E. Knox, J. B. Cross, 
 V. Bakken, C. Adamo, J. Jaramillo, R. Gomperts, R. E. Stratmann, 
 O. Yazyev, A. J. Austin, R. Cammi, C. Pomelli, J. W. Ochterski, 
 R. L. Martin, K. Morokuma, V. G. Zakrzewski, G. A. Voth, 
 P. Salvador, J. J. Dannenberg, S. Dapprich, A. D. Daniels, 
 O. Farkas, J. B. Foresman, J. V. Ortiz, J. Cioslowski, 
 and D. J. Fox, Gaussian, Inc., Wallingford CT, 2013.
 
 ******************************************
 Gaussian 09:  ES64L-G09RevE.01 30-Nov-2015
                24-Feb-2019 
 ******************************************
 %chk=4SulfOxyCF3.M062X_6-31pGd_opt_Pentadecane.chk
 %mem=196608000
 %nproc=4
 Will use up to    4 processors via shared memory.
 ----------------------------------------------------------------------
 # M062X/Gen 6D SCF=Tight INT(grid=ultrafine) OPT IOP(2/17=4) SCRF=(SMD
 ,Solvent=n-Pentadecane) maxdisk=2684354560
 ----------------------------------------------------------------------
 1/14=-1,18=20,19=15,26=4,38=1/1,3;
 2/9=110,12=2,17=4,18=5,40=1/2;
 3/5=7,8=2,11=2,16=1,25=1,30=1,70=32201,71=1,72=151,74=-55,75=-5/1,2,3;
 4//1;
 5/5=2,32=2,38=5,53=151/2;
 6/7=2,8=2,9=2,10=2,28=1/1;
 7//1,2,3,16;
 1/14=-1,18=20,19=15,26=4/3(2);
 2/9=110,17=4/2;
 99//99;
 2/9=110,17=4/2;
 3/5=7,6=1,8=2,11=2,16=1,25=1,30=1,70=32205,71=1,72=151,74=-55,75=-5,82=7/1,2,3;
 4/5=5,16=3,69=1/1;
 5/5=2,32=2,38=5,53=151/2;
 7//1,2,3,16;
 1/14=-1,18=20,19=15,26=4/3(-5);
 2/9=110,17=4/2;
 6/7=2,8=2,9=2,10=2,19=2,28=1/1;
 99/9=1/99;
 -----------------------------------------
 4SulfOxyCF3.M062X_6-31pGd_opt_Pentadecane
 -----------------------------------------
 Symbolic Z-matrix:
 Charge =  0 Multiplicity = 1
 C                    -2.11712   1.94256  -0.02386 
 C                    -0.79202   1.19505   0.09313 
 C                     0.39854   2.1541   -0.0209 
 N                     1.65725   1.43652   0.08472 
 C                     2.8588    2.07549   0.00505 
 O                     2.8813    3.28517  -0.15698 
 N                     4.01518   1.34927   0.10388 
 C                     5.3705    1.82978   0.03765 
 C                     5.73374   3.18851  -0.1322 
 C                     6.40672   0.88121   0.14803 
 C                     7.74908   1.26289   0.08969 
 C                     8.09037   2.60698  -0.08084 
 C                     7.07991   3.56437  -0.18937 
 H                    -2.95886   1.22338   0.06102 
 H                    -2.1855    2.45528  -1.00704 
 H                    -2.20892   2.69546   0.78774 
 H                    -0.73457   0.43561  -0.71695 
 H                    -0.75628   0.6744    1.07486 
 H                     0.33855   2.91147   0.79176 
 H                     0.35532   2.67336  -1.00384 
 H                     1.64084   0.41334   0.22043 
 H                     3.90395   0.33184   0.23706 
 H                     5.02039   3.98636  -0.22433 
 H                     6.17379  -0.16823   0.27964 
 H                     8.51864   0.50722   0.17795 
 S                     9.80958   3.11994  -0.16022 
 O                     10.65643   1.87293  -0.46005 
 O                     10.27371   3.38393   1.28004 
 H                     7.33533   4.60837  -0.32006 
 C                     10.44619   4.4613   -1.20643 
 F                     11.82071   4.53299  -1.08202 
 F                     10.12103   4.21033  -2.52553 
 F                     9.88968   5.66226  -0.81047 
 

 GradGradGradGradGradGradGradGradGradGradGradGradGradGradGradGradGradGrad
 Berny optimization.
 Initialization pass.
                           ----------------------------
                           !    Initial Parameters    !
                           ! (Angstroms and Degrees)  !
 --------------------------                            --------------------------
 ! Name  Definition              Value          Derivative Info.                !
 --------------------------------------------------------------------------------
 ! R1    R(1,2)                  1.5259         estimate D2E/DX2                !
 ! R2    R(1,14)                 1.1104         estimate D2E/DX2                !
 ! R3    R(1,15)                 1.1109         estimate D2E/DX2                !
 ! R4    R(1,16)                 1.1108         estimate D2E/DX2                !
 ! R5    R(2,3)                  1.533          estimate D2E/DX2                !
 ! R6    R(2,17)                 1.1119         estimate D2E/DX2                !
 ! R7    R(2,18)                 1.1118         estimate D2E/DX2                !
 ! R8    R(3,4)                  1.4527         estimate D2E/DX2                !
 ! R9    R(3,19)                 1.1125         estimate D2E/DX2                !
 ! R10   R(3,20)                 1.1125         estimate D2E/DX2                !
 ! R11   R(4,5)                  1.3632         estimate D2E/DX2                !
 ! R12   R(4,21)                 1.0323         estimate D2E/DX2                !
 ! R13   R(5,6)                  1.2207         estimate D2E/DX2                !
 ! R14   R(5,7)                  1.3691         estimate D2E/DX2                !
 ! R15   R(7,8)                  1.4395         estimate D2E/DX2                !
 ! R16   R(7,22)                 1.0321         estimate D2E/DX2                !
 ! R17   R(8,9)                  1.4167         estimate D2E/DX2                !
 ! R18   R(8,10)                 1.4092         estimate D2E/DX2                !
 ! R19   R(9,13)                 1.3988         estimate D2E/DX2                !
 ! R20   R(9,23)                 1.0742         estimate D2E/DX2                !
 ! R21   R(10,11)                1.3968         estimate D2E/DX2                !
 ! R22   R(10,24)                1.083          estimate D2E/DX2                !
 ! R23   R(11,12)                1.3972         estimate D2E/DX2                !
 ! R24   R(11,25)                1.0822         estimate D2E/DX2                !
 ! R25   R(12,13)                1.3962         estimate D2E/DX2                !
 ! R26   R(12,26)                1.7959         estimate D2E/DX2                !
 ! R27   R(13,29)                1.0827         estimate D2E/DX2                !
 ! R28   R(26,27)                1.5369         estimate D2E/DX2                !
 ! R29   R(26,28)                1.5361         estimate D2E/DX2                !
 ! R30   R(26,30)                1.8163         estimate D2E/DX2                !
 ! R31   R(30,31)                1.382          estimate D2E/DX2                !
 ! R32   R(30,32)                1.3816         estimate D2E/DX2                !
 ! R33   R(30,33)                1.3816         estimate D2E/DX2                !
 ! A1    A(2,1,14)             109.5821         estimate D2E/DX2                !
 ! A2    A(2,1,15)             110.328          estimate D2E/DX2                !
 ! A3    A(2,1,16)             110.3515         estimate D2E/DX2                !
 ! A4    A(14,1,15)            108.6574         estimate D2E/DX2                !
 ! A5    A(14,1,16)            108.6924         estimate D2E/DX2                !
 ! A6    A(15,1,16)            109.1899         estimate D2E/DX2                !
 ! A7    A(1,2,3)              111.2378         estimate D2E/DX2                !
 ! A8    A(1,2,17)             108.8815         estimate D2E/DX2                !
 ! A9    A(1,2,18)             108.9668         estimate D2E/DX2                !
 ! A10   A(3,2,17)             109.4492         estimate D2E/DX2                !
 ! A11   A(3,2,18)             109.4915         estimate D2E/DX2                !
 ! A12   A(17,2,18)            108.7723         estimate D2E/DX2                !
 ! A13   A(2,3,4)              111.0058         estimate D2E/DX2                !
 ! A14   A(2,3,19)             109.2494         estimate D2E/DX2                !
 ! A15   A(2,3,20)             109.1195         estimate D2E/DX2                !
 ! A16   A(4,3,19)             109.2621         estimate D2E/DX2                !
 ! A17   A(4,3,20)             109.1747         estimate D2E/DX2                !
 ! A18   A(19,3,20)            108.9996         estimate D2E/DX2                !
 ! A19   A(3,4,5)              121.8648         estimate D2E/DX2                !
 ! A20   A(3,4,21)             119.0378         estimate D2E/DX2                !
 ! A21   A(5,4,21)             119.097          estimate D2E/DX2                !
 ! A22   A(4,5,6)              119.242          estimate D2E/DX2                !
 ! A23   A(4,5,7)              119.4474         estimate D2E/DX2                !
 ! A24   A(6,5,7)              121.3103         estimate D2E/DX2                !
 ! A25   A(5,7,8)              127.9418         estimate D2E/DX2                !
 ! A26   A(5,7,22)             116.1794         estimate D2E/DX2                !
 ! A27   A(8,7,22)             115.8779         estimate D2E/DX2                !
 ! A28   A(7,8,9)              124.5467         estimate D2E/DX2                !
 ! A29   A(7,8,10)             117.6482         estimate D2E/DX2                !
 ! A30   A(9,8,10)             117.805          estimate D2E/DX2                !
 ! A31   A(8,9,13)             120.6213         estimate D2E/DX2                !
 ! A32   A(8,9,23)             123.5298         estimate D2E/DX2                !
 ! A33   A(13,9,23)            115.8488         estimate D2E/DX2                !
 ! A34   A(8,10,11)            121.2975         estimate D2E/DX2                !
 ! A35   A(8,10,24)            120.2416         estimate D2E/DX2                !
 ! A36   A(11,10,24)           118.4609         estimate D2E/DX2                !
 ! A37   A(10,11,12)           120.1801         estimate D2E/DX2                !
 ! A38   A(10,11,25)           119.2885         estimate D2E/DX2                !
 ! A39   A(12,11,25)           120.5314         estimate D2E/DX2                !
 ! A40   A(11,12,13)           119.4953         estimate D2E/DX2                !
 ! A41   A(11,12,26)           120.9318         estimate D2E/DX2                !
 ! A42   A(13,12,26)           119.5728         estimate D2E/DX2                !
 ! A43   A(9,13,12)            120.6005         estimate D2E/DX2                !
 ! A44   A(9,13,29)            119.4098         estimate D2E/DX2                !
 ! A45   A(12,13,29)           119.9897         estimate D2E/DX2                !
 ! A46   A(12,26,27)           107.7195         estimate D2E/DX2                !
 ! A47   A(12,26,28)           107.2719         estimate D2E/DX2                !
 ! A48   A(12,26,30)           124.8851         estimate D2E/DX2                !
 ! A49   A(27,26,28)            98.9675         estimate D2E/DX2                !
 ! A50   A(27,26,30)           107.0799         estimate D2E/DX2                !
 ! A51   A(28,26,30)           107.8939         estimate D2E/DX2                !
 ! A52   A(26,30,31)           109.5756         estimate D2E/DX2                !
 ! A53   A(26,30,32)           109.47           estimate D2E/DX2                !
 ! A54   A(26,30,33)           109.6143         estimate D2E/DX2                !
 ! A55   A(31,30,32)           109.2357         estimate D2E/DX2                !
 ! A56   A(31,30,33)           109.2525         estimate D2E/DX2                !
 ! A57   A(32,30,33)           109.6785         estimate D2E/DX2                !
 ! D1    D(14,1,2,3)           179.9313         estimate D2E/DX2                !
 ! D2    D(14,1,2,17)           59.2362         estimate D2E/DX2                !
 ! D3    D(14,1,2,18)          -59.2652         estimate D2E/DX2                !
 ! D4    D(15,1,2,3)            60.3349         estimate D2E/DX2                !
 ! D5    D(15,1,2,17)          -60.3601         estimate D2E/DX2                !
 ! D6    D(15,1,2,18)         -178.8615         estimate D2E/DX2                !
 ! D7    D(16,1,2,3)           -60.4147         estimate D2E/DX2                !
 ! D8    D(16,1,2,17)          178.8903         estimate D2E/DX2                !
 ! D9    D(16,1,2,18)           60.3889         estimate D2E/DX2                !
 ! D10   D(1,2,3,4)           -179.727          estimate D2E/DX2                !
 ! D11   D(1,2,3,19)            59.7164         estimate D2E/DX2                !
 ! D12   D(1,2,3,20)           -59.3636         estimate D2E/DX2                !
 ! D13   D(17,2,3,4)           -59.3666         estimate D2E/DX2                !
 ! D14   D(17,2,3,19)         -179.9231         estimate D2E/DX2                !
 ! D15   D(17,2,3,20)           60.9968         estimate D2E/DX2                !
 ! D16   D(18,2,3,4)            59.7783         estimate D2E/DX2                !
 ! D17   D(18,2,3,19)          -60.7783         estimate D2E/DX2                !
 ! D18   D(18,2,3,20)         -179.8583         estimate D2E/DX2                !
 ! D19   D(2,3,4,5)            179.6294         estimate D2E/DX2                !
 ! D20   D(2,3,4,21)            -0.1394         estimate D2E/DX2                !
 ! D21   D(19,3,4,5)           -59.8216         estimate D2E/DX2                !
 ! D22   D(19,3,4,21)          120.4096         estimate D2E/DX2                !
 ! D23   D(20,3,4,5)            59.2986         estimate D2E/DX2                !
 ! D24   D(20,3,4,21)         -120.4701         estimate D2E/DX2                !
 ! D25   D(3,4,5,6)              0.1463         estimate D2E/DX2                !
 ! D26   D(3,4,5,7)           -179.6508         estimate D2E/DX2                !
 ! D27   D(21,4,5,6)           179.9149         estimate D2E/DX2                !
 ! D28   D(21,4,5,7)             0.1178         estimate D2E/DX2                !
 ! D29   D(4,5,7,8)            179.6096         estimate D2E/DX2                !
 ! D30   D(4,5,7,22)            -0.0248         estimate D2E/DX2                !
 ! D31   D(6,5,7,8)             -0.1831         estimate D2E/DX2                !
 ! D32   D(6,5,7,22)          -179.8175         estimate D2E/DX2                !
 ! D33   D(5,7,8,9)              0.7812         estimate D2E/DX2                !
 ! D34   D(5,7,8,10)          -179.1406         estimate D2E/DX2                !
 ! D35   D(22,7,8,9)          -179.5835         estimate D2E/DX2                !
 ! D36   D(22,7,8,10)            0.4948         estimate D2E/DX2                !
 ! D37   D(7,8,9,13)          -179.8145         estimate D2E/DX2                !
 ! D38   D(7,8,9,23)             0.1874         estimate D2E/DX2                !
 ! D39   D(10,8,9,13)            0.1071         estimate D2E/DX2                !
 ! D40   D(10,8,9,23)         -179.891          estimate D2E/DX2                !
 ! D41   D(7,8,10,11)          179.7964         estimate D2E/DX2                !
 ! D42   D(7,8,10,24)           -0.117          estimate D2E/DX2                !
 ! D43   D(9,8,10,11)           -0.1308         estimate D2E/DX2                !
 ! D44   D(9,8,10,24)          179.9559         estimate D2E/DX2                !
 ! D45   D(8,9,13,12)            0.0376         estimate D2E/DX2                !
 ! D46   D(8,9,13,29)          179.9773         estimate D2E/DX2                !
 ! D47   D(23,9,13,12)        -179.9641         estimate D2E/DX2                !
 ! D48   D(23,9,13,29)          -0.0245         estimate D2E/DX2                !
 ! D49   D(8,10,11,12)           0.0093         estimate D2E/DX2                !
 ! D50   D(8,10,11,25)        -179.993          estimate D2E/DX2                !
 ! D51   D(24,10,11,12)        179.9242         estimate D2E/DX2                !
 ! D52   D(24,10,11,25)         -0.0782         estimate D2E/DX2                !
 ! D53   D(10,11,12,13)          0.1384         estimate D2E/DX2                !
 ! D54   D(10,11,12,26)       -179.9391         estimate D2E/DX2                !
 ! D55   D(25,11,12,13)       -179.8592         estimate D2E/DX2                !
 ! D56   D(25,11,12,26)          0.0632         estimate D2E/DX2                !
 ! D57   D(11,12,13,9)          -0.1618         estimate D2E/DX2                !
 ! D58   D(11,12,13,29)        179.899          estimate D2E/DX2                !
 ! D59   D(26,12,13,9)         179.9147         estimate D2E/DX2                !
 ! D60   D(26,12,13,29)         -0.0246         estimate D2E/DX2                !
 ! D61   D(11,12,26,27)         17.6597         estimate D2E/DX2                !
 ! D62   D(11,12,26,28)        -88.0469         estimate D2E/DX2                !
 ! D63   D(11,12,26,30)        144.4332         estimate D2E/DX2                !
 ! D64   D(13,12,26,27)       -162.4179         estimate D2E/DX2                !
 ! D65   D(13,12,26,28)         91.8756         estimate D2E/DX2                !
 ! D66   D(13,12,26,30)        -35.6444         estimate D2E/DX2                !
 ! D67   D(12,26,30,31)       -176.3846         estimate D2E/DX2                !
 ! D68   D(12,26,30,32)        -56.6099         estimate D2E/DX2                !
 ! D69   D(12,26,30,33)         63.7316         estimate D2E/DX2                !
 ! D70   D(27,26,30,31)        -49.3443         estimate D2E/DX2                !
 ! D71   D(27,26,30,32)         70.4305         estimate D2E/DX2                !
 ! D72   D(27,26,30,33)       -169.228          estimate D2E/DX2                !
 ! D73   D(28,26,30,31)         56.3533         estimate D2E/DX2                !
 ! D74   D(28,26,30,32)        176.1281         estimate D2E/DX2                !
 ! D75   D(28,26,30,33)        -63.5305         estimate D2E/DX2                !
 --------------------------------------------------------------------------------
 Trust Radius=3.00D-01 FncErr=1.00D-07 GrdErr=1.00D-06
 Number of steps in this run=    175 maximum allowed number of steps=    198.
 GradGradGradGradGradGradGradGradGradGradGradGradGradGradGradGradGradGrad

                          Input orientation:                          
 ---------------------------------------------------------------------
 Center     Atomic      Atomic             Coordinates (Angstroms)
 Number     Number       Type             X           Y           Z
 ---------------------------------------------------------------------
      1          6           0       -2.117120    1.942560   -0.023860
      2          6           0       -0.792020    1.195050    0.093130
      3          6           0        0.398540    2.154100   -0.020900
      4          7           0        1.657250    1.436520    0.084720
      5          6           0        2.858800    2.075490    0.005050
      6          8           0        2.881300    3.285170   -0.156980
      7          7           0        4.015180    1.349270    0.103880
      8          6           0        5.370500    1.829780    0.037650
      9          6           0        5.733740    3.188510   -0.132200
     10          6           0        6.406720    0.881210    0.148030
     11          6           0        7.749080    1.262890    0.089690
     12          6           0        8.090370    2.606980   -0.080840
     13          6           0        7.079910    3.564370   -0.189370
     14          1           0       -2.958860    1.223380    0.061020
     15          1           0       -2.185500    2.455280   -1.007040
     16          1           0       -2.208920    2.695460    0.787740
     17          1           0       -0.734570    0.435610   -0.716950
     18          1           0       -0.756280    0.674400    1.074860
     19          1           0        0.338550    2.911470    0.791760
     20          1           0        0.355320    2.673360   -1.003840
     21          1           0        1.640840    0.413340    0.220430
     22          1           0        3.903950    0.331840    0.237060
     23          1           0        5.020390    3.986360   -0.224330
     24          1           0        6.173790   -0.168230    0.279640
     25          1           0        8.518640    0.507220    0.177950
     26         16           0        9.809580    3.119940   -0.160220
     27          8           0       10.656430    1.872930   -0.460050
     28          8           0       10.273710    3.383930    1.280040
     29          1           0        7.335330    4.608370   -0.320060
     30          6           0       10.446190    4.461300   -1.206430
     31          9           0       11.820710    4.532990   -1.082020
     32          9           0       10.121030    4.210330   -2.525530
     33          9           0        9.889680    5.662260   -0.810470
 ---------------------------------------------------------------------
                    Distance matrix (angstroms):
                    1          2          3          4          5
     1  C    0.000000
     2  C    1.525892   0.000000
     3  C    2.524540   1.533040   0.000000
     4  N    3.809690   2.461159   1.452731   0.000000
     5  C    4.977779   3.756517   2.461652   1.363214   0.000000
     6  O    5.177309   4.233726   2.731654   2.230297   1.220691
     7  N    6.162257   4.809685   3.707210   2.359621   1.369079
     8  C    7.488722   6.195370   4.982870   3.734313   2.523900
     9  C    7.949851   6.827166   5.435692   4.442330   3.085925
    10  C    8.591383   7.205787   6.143860   4.782242   3.746263
    11  C    9.890235   8.541370   7.405196   6.094306   4.958056
    12  C   10.229250   8.995591   7.705384   6.540827   5.259200
    13  C    9.340397   8.225616   6.830662   5.831647   4.480216
    14  H    1.110383   2.167263   3.484980   4.621089   5.879999
    15  H    1.110946   2.177232   2.782165   4.122686   5.158830
    16  H    1.110847   2.177457   2.783131   4.126310   5.165148
    17  H    2.159332   1.111881   2.172932   2.713908   4.015320
    18  H    2.160394   1.111822   2.173433   2.717781   4.021983
    19  H    2.763031   2.170799   1.112486   2.101036   2.769375
    20  H    2.758150   2.169132   1.112506   2.099942   2.764547
    21  H    4.064536   2.558532   2.152161   1.032271   2.071849
    22  H    6.238252   4.776817   3.959176   2.508224   2.046090
    23  H    7.427069   6.455719   4.975948   4.231773   2.894220
    24  H    8.560767   7.100410   6.231938   4.797119   4.012336
    25  H   10.734073   9.336418   8.287809   6.924663   5.875641
    26  S   11.985449  10.777908   9.461497   8.327928   7.030756
    27  O   12.781185  11.481835  10.271135   9.026210   7.814114
    28  O   12.542343  11.342413  10.036130   8.914291   7.636655
    29  H    9.825634   8.824698   7.364237   6.516523   5.153688
    30  C   12.867761  11.775169  10.377086   9.384126   8.045388
    31  F   14.215947  13.099763  11.715420  10.688561   9.356113
    32  F   12.695411  11.620841  10.248320   9.281325   7.981313
    33  F   12.594371  11.613405  10.149500   9.296835   7.934940
                    6          7          8          9         10
     6  O    0.000000
     7  N    2.258637   0.000000
     8  C    2.890010   1.439503   0.000000
     9  C    2.854185   2.528238   1.416665   0.000000
    10  C    4.277925   2.437313   1.409156   2.419724   0.000000
    11  C    5.276907   3.734926   2.445755   2.796219   1.396787
    12  C    5.253584   4.268856   2.831214   2.427863   2.421847
    13  C    4.208008   3.792787   2.445899   1.398826   2.786821
    14  H    6.197255   6.975308   8.351437   8.914054   9.372232
    15  H    5.204208   6.395767   7.653480   8.001083   8.811250
    16  H    5.210623   6.404632   7.665484   8.010945   8.827796
    17  H    4.637680   4.905982   6.307536   7.054036   7.207272
    18  H    4.643871   4.915799   6.320454   7.063859   7.225673
    19  H    2.739587   4.053549   5.201851   5.480742   6.431099
    20  H    2.733507   4.046583   5.191181   5.472891   6.415454
    21  H    3.150966   2.554807   3.993754   4.957595   4.789338
    22  H    3.150117   1.032121   2.105791   3.412484   2.563902
    23  H    2.252090   2.841199   2.200465   1.074207   3.420895
    24  H    4.791357   2.644484   2.166997   3.410419   1.083006
    25  H    6.293551   4.582105   3.417548   3.878296   2.144987
    26  S    6.930251   6.064659   4.626996   4.076513   4.084897
    27  O    7.908155   6.685689   5.309484   5.105988   4.406053
    28  O    7.531434   6.685237   5.291539   4.758565   4.743276
    29  H    4.649283   4.671708   3.421853   2.148577   3.869515
    30  C    7.727366   7.263576   5.851091   4.998115   5.564973
    31  F    9.073357   8.512857   7.082811   6.305631   6.645285
    32  F    7.673307   7.237463   5.899529   5.101025   5.659246
    33  F    7.429334   7.344908   5.985833   4.883782   5.992343
                   11         12         13         14         15
    11  C    0.000000
    12  C    1.397189   0.000000
    13  C    2.412980   1.396211   0.000000
    14  H   10.708051  11.136425  10.311151   0.000000
    15  H   10.065808  10.318642   9.367310   1.804554   0.000000
    16  H   10.084706  10.336229   9.380411   1.804869   1.810931
    17  H    8.561973   9.110381   8.434072   2.484610   2.503681
    18  H    8.582426   9.128731   8.447253   2.486083   3.090067
    19  H    7.624085   7.806719   6.843598   3.775784   3.132829
    20  H    7.606111   7.790208   6.832084   3.770962   2.550164
    21  H    6.168422   6.819036   6.299239   4.673202   4.507447
    22  H    3.958989   4.775294   4.551683   6.922716   6.567966
    23  H    3.868029   3.368688   2.102598   8.448900   7.408218
    24  H    2.136755   3.391904   3.869538   9.240653   8.855285
    25  H    1.082150   2.158560   3.398681  11.500416  10.944302
    26  S    2.785094   1.795860   2.765767  12.910420  12.043289
    27  O    3.021100   2.695792   3.965568  13.640731  12.866759
    28  O    3.505638   2.687493   3.520239  13.463094  12.701379
    29  H    3.395780   2.152411   1.082707  10.843142   9.785394
    30  C    4.379972   3.202397   3.629151  13.848679  12.791539
    31  F    5.352068   4.315937   4.920390  15.188672  14.159676
    32  F    4.599231   3.559610   3.888871  13.663661  12.523446
    33  F    4.974627   3.620029   3.561140  13.621605  12.495332
                   16         17         18         19         20
    16  H    0.000000
    17  H    3.089453   0.000000
    18  H    2.505451   1.807782   0.000000
    19  H    2.556615   3.091549   2.506647   0.000000
    20  H    3.128190   2.505532   3.090710   1.811396   0.000000
    21  H    4.511160   2.553772   2.558200   2.874549   2.873863
    22  H    6.577015   4.736747   4.747315   4.435568   4.428919
    23  H    7.413072   6.780123   6.784312   4.909934   4.908613
    24  H    8.872920   7.005944   7.026256   6.617918   6.601254
    25  H   10.965436   9.296659   9.319685   8.548161   8.528106
    26  S   12.063298  10.894709  10.915287   9.521036   9.502324
    27  O   12.951863  11.484196  11.577667  10.445298  10.346461
    28  O   12.511291  11.569909  11.359768   9.958365  10.202719
    29  H    9.796895   9.093555   9.104728   7.284953   7.275463
    30  C   12.932390  11.893493  12.043265  10.419171  10.250045
    31  F   14.272457  13.211997  13.331224  11.746505  11.615486
    32  F   12.856915  11.634583  11.990892  10.410973  10.002345
    33  F   12.559152  11.840663  11.906707  10.067675   9.993745
                   21         22         23         24         25
    21  H    0.000000
    22  H    2.264638   0.000000
    23  H    4.938182   3.849004   0.000000
    24  H    4.570489   2.324663   4.341075   0.000000
    25  H    6.878572   4.618400   4.950151   2.442313   0.000000
    26  S    8.613878   6.542767   4.867354   4.921840   2.933801
    27  O    9.158292   6.961100   6.023877   4.980716   2.615789
    28  O    9.190953   7.139811   5.497583   5.516157   3.545467
    29  H    7.093492   5.511212   2.398960   4.952244   4.297402
    30  C    9.795718   7.870007   5.534383   6.472585   4.611584
    31  F   11.058827   9.058958   6.875957   7.472837   5.357053
    32  F    9.688707   7.831135   5.600198   6.528512   4.856900
    33  F    9.831443   8.083295   5.182874   6.999342   5.425050
                   26         27         28         29         30
    26  S    0.000000
    27  O    1.536908   0.000000
    28  O    1.536052   2.336131   0.000000
    29  H    2.891865   4.304873   3.562815   0.000000
    30  C    1.816335   2.702026   2.715328   3.238013   0.000000
    31  F    2.625085   2.969565   3.048422   4.550264   1.381999
    32  F    2.623098   3.164854   3.897257   3.575284   1.381571
    33  F    2.625382   3.881974   3.115846   2.806402   1.381591
                   31         32         33
    31  F    0.000000
    32  F    2.253163   0.000000
    33  F    2.253412   2.258994   0.000000
 Stoichiometry    C11H13F3N2O3S
 Framework group  C1[X(C11H13F3N2O3S)]
 Deg. of freedom    93
 Full point group                 C1      NOp   1
 Largest Abelian subgroup         C1      NOp   1
 Largest concise Abelian subgroup C1      NOp   1
                         Standard orientation:                         
 ---------------------------------------------------------------------
 Center     Atomic      Atomic             Coordinates (Angstroms)
 Number     Number       Type             X           Y           Z
 ---------------------------------------------------------------------
      1          6           0       -8.395413   -0.904222    0.012471
      2          6           0       -7.252468    0.092560    0.181146
      3          6           0       -5.892979   -0.576921   -0.050799
      4          7           0       -4.808384    0.374832    0.117275
      5          6           0       -3.502831    0.011758   -0.031253
      6          8           0       -3.234127   -1.144419   -0.316101
      7          7           0       -2.519577    0.947868    0.145628
      8          6           0       -1.095347    0.765836    0.042656
      9          6           0       -0.463685   -0.458745   -0.286500
     10          6           0       -0.273755    1.884061    0.288174
     11          6           0        1.118007    1.792299    0.213392
     12          6           0        1.725388    0.576301   -0.109989
     13          6           0        0.930591   -0.543998   -0.360251
     14          1           0       -9.364887   -0.391874    0.187310
     15          1           0       -8.294937   -1.734057    0.744234
     16          1           0       -8.394378   -1.322676   -1.016546
     17          1           0       -7.288490    0.510429    1.210887
     18          1           0       -7.386325    0.922379   -0.546611
     19          1           0       -5.860023   -0.992512   -1.082217
     20          1           0       -5.766628   -1.407444    0.678541
     21          1           0       -5.033005    1.352824    0.359473
     22          1           0       -2.835681    1.900149    0.387519
     23          1           0       -0.999969   -1.366385   -0.492680
     24          1           0       -0.715061    2.839868    0.542308
     25          1           0        1.717769    2.671694    0.408327
     26         16           0        3.512887    0.435118   -0.210116
     27          8           0        4.119257    1.641291    0.524426
     28          8           0        3.919479    0.799917   -1.645755
     29          1           0        1.392780   -1.489875   -0.613141
     30          6           0        4.468849   -1.027405    0.286109
     31          9           0        5.819160   -0.765068    0.152831
     32          9           0        4.192444   -1.332509    1.604916
     33          9           0        4.130991   -2.097618   -0.519675
 ---------------------------------------------------------------------
 Rotational constants (GHZ):      1.0117119      0.0886748      0.0847456
 General basis read from cards:  (6D, 7F)
 There are   410 symmetry adapted cartesian basis functions of A   symmetry.
 There are   410 symmetry adapted basis functions of A   symmetry.
   410 basis functions,   716 primitive gaussians,   410 cartesian basis functions
    80 alpha electrons       80 beta electrons
       nuclear repulsion energy      1697.5876177157 Hartrees.
 NAtoms=   33 NActive=   33 NUniq=   33 SFac= 1.00D+00 NAtFMM=   60 NAOKFM=F Big=F
 Integral buffers will be    131072 words long.
 Raffenetti 2 integral format.
 Two-electron integral symmetry is turned on.
 ------------------------------------------------------------------------------
 Polarizable Continuum Model (PCM)
 =================================
 Model                : PCM (using non-symmetric T matrix).
 Atomic radii         : SMD-Coulomb.
 Polarization charges : Total charges.
 Charge compensation  : None.
 Solution method      : On-the-fly selection.
 Cavity type          : VdW (van der Waals Surface) (Alpha=1.000).
 Cavity algorithm     : GePol (No added spheres)
                        Default sphere list used, NSphG=   33.
                        Lebedev-Laikov grids with approx.  5.0 points / Ang**2.
                        Smoothing algorithm: York/Karplus (Gamma=1.0000).
                        Polarization charges: spherical gaussians, with
                                              point-specific exponents (IZeta= 3).
                        Self-potential: point-specific (ISelfS= 7).
                        Self-field    : sphere-specific E.n sum rule (ISelfD= 2).
 1st derivatives      : Analytical E(r).r(x)/FMM algorithm (CHGder, D1EAlg=3).
                        Cavity 1st derivative terms included.
 Solvent              : n-Pentadecane, Eps=   2.033300 Eps(inf)=   2.049192
 ------------------------------------------------------------------------------
 ------------------------------------------------------------------------------
 Atomic radii for non-electrostatic terms: SMD-CDS.
 ------------------------------------------------------------------------------
 Nuclear repulsion after PCM non-electrostatic terms =     1697.5806190821 Hartrees.
 One-electron integrals computed using PRISM.
 NBasis=   410 RedAO= T EigKep=  1.18D-06  NBF=   410
 NBsUse=   409 1.00D-06 EigRej=  9.07D-07 NBFU=   409
 ExpMin= 4.05D-02 ExpMax= 2.19D+04 ExpMxC= 3.30D+03 IAcc=3 IRadAn=         5 AccDes= 0.00D+00
 Harris functional with IExCor= 1009 and IRadAn=       5 diagonalized for initial guess.
 HarFok:  IExCor= 1009 AccDes= 0.00D+00 IRadAn=         5 IDoV= 1 UseB2=F ITyADJ=14
 ICtDFT=  3500011 ScaDFX=  1.000000  1.000000  1.000000  1.000000
 FoFCou: FMM=F IPFlag=           0 FMFlag=      100000 FMFlg1=           0
         NFxFlg=           0 DoJE=T BraDBF=F KetDBF=T FulRan=T
         wScrn=  0.000000 ICntrl=     500 IOpCl=  0 I1Cent=   200000004 NGrid=           0
         NMat0=    1 NMatS0=      1 NMatT0=    0 NMatD0=    1 NMtDS0=    0 NMtDT0=    0
 Petite list used in FoFCou.
 Requested convergence on RMS density matrix=1.00D-08 within 128 cycles.
 Requested convergence on MAX density matrix=1.00D-06.
 Requested convergence on             energy=1.00D-06.
 No special actions if energy rises.
 Inv3:  Mode=1 IEnd=    22935675.
 Iteration    1 A*A^-1 deviation from unit magnitude is 6.00D-15 for   2742.
 Iteration    1 A*A^-1 deviation from orthogonality  is 2.28D-15 for   1616    462.
 Iteration    1 A^-1*A deviation from unit magnitude is 5.66D-15 for   2742.
 Iteration    1 A^-1*A deviation from orthogonality  is 1.76D-13 for   1921   1911.
 Error on total polarization charges =  0.02009
 SCF Done:  E(RM062X) =  -1459.37164330     A.U. after   17 cycles
            NFock= 17  Conv=0.69D-08     -V/T= 2.0075
 SMD-CDS (non-electrostatic) energy       (kcal/mol) =      -4.39
 (included in total energy above)

 **********************************************************************

            Population analysis using the SCF density.

 **********************************************************************

 Orbital symmetries:
       Occupied  (A) (A) (A) (A) (A) (A) (A) (A) (A) (A) (A) (A)
                 (A) (A) (A) (A) (A) (A) (A) (A) (A) (A) (A) (A)
                 (A) (A) (A) (A) (A) (A) (A) (A) (A) (A) (A) (A)
                 (A) (A) (A) (A) (A) (A) (A) (A) (A) (A) (A) (A)
                 (A) (A) (A) (A) (A) (A) (A) (A) (A) (A) (A) (A)
                 (A) (A) (A) (A) (A) (A) (A) (A) (A) (A) (A) (A)
                 (A) (A) (A) (A) (A) (A) (A) (A)
       Virtual   (A) (A) (A) (A) (A) (A) (A) (A) (A) (A) (A) (A)
                 (A) (A) (A) (A) (A) (A) (A) (A) (A) (A) (A) (A)
                 (A) (A) (A) (A) (A) (A) (A) (A) (A) (A) (A) (A)
                 (A) (A) (A) (A) (A) (A) (A) (A) (A) (A) (A) (A)
                 (A) (A) (A) (A) (A) (A) (A) (A) (A) (A) (A) (A)
                 (A) (A) (A) (A) (A) (A) (A) (A) (A) (A) (A) (A)
                 (A) (A) (A) (A) (A) (A) (A) (A) (A) (A) (A) (A)
                 (A) (A) (A) (A) (A) (A) (A) (A) (A) (A) (A) (A)
                 (A) (A) (A) (A) (A) (A) (A) (A) (A) (A) (A) (A)
                 (A) (A) (A) (A) (A) (A) (A) (A) (A) (A) (A) (A)
                 (A) (A) (A) (A) (A) (A) (A) (A) (A) (A) (A) (A)
                 (A) (A) (A) (A) (A) (A) (A) (A) (A) (A) (A) (A)
                 (A) (A) (A) (A) (A) (A) (A) (A) (A) (A) (A) (A)
                 (A) (A) (A) (A) (A) (A) (A) (A) (A) (A) (A) (A)
                 (A) (A) (A) (A) (A) (A) (A) (A) (A) (A) (A) (A)
                 (A) (A) (A) (A) (A) (A) (A) (A) (A) (A) (A) (A)
                 (A) (A) (A) (A) (A) (A) (A) (A) (A) (A) (A) (A)
                 (A) (A) (A) (A) (A) (A) (A) (A) (A) (A) (A) (A)
                 (A) (A) (A) (A) (A) (A) (A) (A) (A) (A) (A) (A)
                 (A) (A) (A) (A) (A) (A) (A) (A) (A) (A) (A) (A)
                 (A) (A) (A) (A) (A) (A) (A) (A) (A) (A) (A) (A)
                 (A) (A) (A) (A) (A) (A) (A) (A) (A) (A) (A) (A)
                 (A) (A) (A) (A) (A) (A) (A) (A) (A) (A) (A) (A)
                 (A) (A) (A) (A) (A) (A) (A) (A) (A) (A) (A) (A)
                 (A) (A) (A) (A) (A) (A) (A) (A) (A) (A) (A) (A)
                 (A) (A) (A) (A) (A) (A) (A) (A) (A) (A) (A) (A)
                 (A) (A) (A) (A) (A) (A) (A) (A) (A) (A) (A) (A)
                 (A) (A) (A) (A) (A)
 The electronic state is 1-A.
 Alpha  occ. eigenvalues --  -90.17213 -25.35073 -25.34959 -25.34905 -19.64327
 Alpha  occ. eigenvalues --  -19.64280 -19.61468 -14.82755 -14.79925 -10.88446
 Alpha  occ. eigenvalues --  -10.69506 -10.64831 -10.62948 -10.60255 -10.59993
 Alpha  occ. eigenvalues --  -10.59225 -10.59198 -10.58186 -10.56142 -10.54827
 Alpha  occ. eigenvalues --   -8.48771  -6.40920  -6.40805  -6.40785  -1.48623
 Alpha  occ. eigenvalues --   -1.41006  -1.40667  -1.20868  -1.19096  -1.07772
 Alpha  occ. eigenvalues --   -1.06741  -1.03830  -0.99473  -0.91767  -0.89427
 Alpha  occ. eigenvalues --   -0.88070  -0.87720  -0.80584  -0.78183  -0.74256
 Alpha  occ. eigenvalues --   -0.73836  -0.72206  -0.72029  -0.69035  -0.68617
 Alpha  occ. eigenvalues --   -0.67505  -0.64871  -0.62985  -0.60595  -0.60567
 Alpha  occ. eigenvalues --   -0.59034  -0.57400  -0.56982  -0.56743  -0.56054
 Alpha  occ. eigenvalues --   -0.55454  -0.55305  -0.54215  -0.53963  -0.53276
 Alpha  occ. eigenvalues --   -0.52235  -0.52055  -0.50386  -0.48903  -0.48497
 Alpha  occ. eigenvalues --   -0.47281  -0.46261  -0.44283  -0.43077  -0.41227
 Alpha  occ. eigenvalues --   -0.40808  -0.40416  -0.40115  -0.38393  -0.37627
 Alpha  occ. eigenvalues --   -0.35182  -0.34699  -0.34034  -0.32864  -0.30062
 Alpha virt. eigenvalues --   -0.05223  -0.02362  -0.01061  -0.00378   0.01480
 Alpha virt. eigenvalues --    0.02150   0.02497   0.03051   0.03419   0.03802
 Alpha virt. eigenvalues --    0.04247   0.04572   0.05087   0.05598   0.06209
 Alpha virt. eigenvalues --    0.06753   0.06923   0.07312   0.07688   0.07960
 Alpha virt. eigenvalues --    0.08438   0.08630   0.09124   0.09569   0.09872
 Alpha virt. eigenvalues --    0.10038   0.10432   0.10646   0.11441   0.12034
 Alpha virt. eigenvalues --    0.12406   0.12829   0.13516   0.13933   0.14366
 Alpha virt. eigenvalues --    0.14612   0.15029   0.15215   0.15404   0.16144
 Alpha virt. eigenvalues --    0.16667   0.16797   0.17119   0.18000   0.19021
 Alpha virt. eigenvalues --    0.19170   0.19341   0.19639   0.20411   0.20653
 Alpha virt. eigenvalues --    0.20743   0.21055   0.21796   0.21939   0.22617
 Alpha virt. eigenvalues --    0.22648   0.23151   0.23367   0.23962   0.24429
 Alpha virt. eigenvalues --    0.24697   0.24855   0.25194   0.26004   0.26340
 Alpha virt. eigenvalues --    0.26726   0.27029   0.27607   0.28083   0.28749
 Alpha virt. eigenvalues --    0.28800   0.29442   0.29858   0.29920   0.30780
 Alpha virt. eigenvalues --    0.31226   0.31611   0.31732   0.32384   0.32783
 Alpha virt. eigenvalues --    0.33283   0.33579   0.33916   0.34218   0.34371
 Alpha virt. eigenvalues --    0.34999   0.35165   0.35439   0.36308   0.36675
 Alpha virt. eigenvalues --    0.37271   0.37755   0.38105   0.38304   0.38546
 Alpha virt. eigenvalues --    0.39203   0.40124   0.40493   0.41050   0.41832
 Alpha virt. eigenvalues --    0.42607   0.42973   0.44667   0.44752   0.45425
 Alpha virt. eigenvalues --    0.46099   0.46317   0.48453   0.48823   0.50704
 Alpha virt. eigenvalues --    0.51977   0.53339   0.54046   0.57597   0.58486
 Alpha virt. eigenvalues --    0.59074   0.60731   0.63863   0.66332   0.66908
 Alpha virt. eigenvalues --    0.68248   0.68838   0.70080   0.70956   0.71452
 Alpha virt. eigenvalues --    0.73388   0.73895   0.74343   0.75061   0.76050
 Alpha virt. eigenvalues --    0.76615   0.77605   0.78405   0.79162   0.80401
 Alpha virt. eigenvalues --    0.81353   0.81854   0.83056   0.83431   0.85772
 Alpha virt. eigenvalues --    0.86270   0.87286   0.88180   0.88662   0.89787
 Alpha virt. eigenvalues --    0.92248   0.92936   0.95534   0.96318   0.96916
 Alpha virt. eigenvalues --    0.97134   0.99208   0.99255   1.01292   1.01678
 Alpha virt. eigenvalues --    1.02920   1.03351   1.04442   1.04651   1.07016
 Alpha virt. eigenvalues --    1.08649   1.09716   1.10054   1.10810   1.11637
 Alpha virt. eigenvalues --    1.12486   1.13280   1.14088   1.14126   1.15748
 Alpha virt. eigenvalues --    1.17504   1.19053   1.20634   1.21167   1.22236
 Alpha virt. eigenvalues --    1.25739   1.26866   1.28003   1.29733   1.30392
 Alpha virt. eigenvalues --    1.31664   1.34534   1.34770   1.35479   1.36795
 Alpha virt. eigenvalues --    1.38377   1.38540   1.39167   1.39676   1.41056
 Alpha virt. eigenvalues --    1.43208   1.43798   1.44096   1.44437   1.45840
 Alpha virt. eigenvalues --    1.46457   1.47122   1.48216   1.48537   1.49154
 Alpha virt. eigenvalues --    1.51036   1.52746   1.54818   1.55822   1.56211
 Alpha virt. eigenvalues --    1.57030   1.59383   1.60638   1.63489   1.64943
 Alpha virt. eigenvalues --    1.66435   1.67886   1.68933   1.70582   1.70934
 Alpha virt. eigenvalues --    1.71405   1.72462   1.74402   1.75352   1.77518
 Alpha virt. eigenvalues --    1.78416   1.82637   1.83637   1.84223   1.84310
 Alpha virt. eigenvalues --    1.84969   1.85239   1.86429   1.86828   1.87245
 Alpha virt. eigenvalues --    1.87900   1.88334   1.91005   1.91184   1.92476
 Alpha virt. eigenvalues --    1.92719   1.94171   1.95450   1.95973   1.96127
 Alpha virt. eigenvalues --    1.97585   1.97870   1.98252   1.98891   2.00286
 Alpha virt. eigenvalues --    2.00874   2.01132   2.02843   2.03002   2.03926
 Alpha virt. eigenvalues --    2.04710   2.05163   2.05707   2.06307   2.09881
 Alpha virt. eigenvalues --    2.12801   2.13366   2.14585   2.14808   2.16709
 Alpha virt. eigenvalues --    2.16890   2.19361   2.19438   2.20376   2.22346
 Alpha virt. eigenvalues --    2.23492   2.23896   2.25647   2.27542   2.28461
 Alpha virt. eigenvalues --    2.28751   2.30210   2.30380   2.32298   2.35160
 Alpha virt. eigenvalues --    2.37421   2.38002   2.39361   2.40324   2.41354
 Alpha virt. eigenvalues --    2.47761   2.55091   2.56248   2.61007   2.62941
 Alpha virt. eigenvalues --    2.64507   2.65205   2.67247   2.70523   2.73013
 Alpha virt. eigenvalues --    2.73098   2.74845   2.75728   2.77495   2.78376
 Alpha virt. eigenvalues --    2.78866   2.81696   2.83281   2.88098   2.89576
 Alpha virt. eigenvalues --    2.96795   3.03787   3.11109   3.13887   3.14950
 Alpha virt. eigenvalues --    3.17001   3.26674   3.30848   3.38402   4.01091
 Alpha virt. eigenvalues --    4.14036   4.19534   4.24675   4.25714   4.28691
 Alpha virt. eigenvalues --    4.33015   4.37547   4.39482   4.41139   4.41580
 Alpha virt. eigenvalues --    4.47493   4.49196   4.49605   4.57790   4.66151
 Alpha virt. eigenvalues --    4.74283   5.66758   5.84193   6.31556
          Condensed to atoms (all electrons):
               1          2          3          4          5          6
     1  C    5.593773  -0.012628   0.016599  -0.002315  -0.053598  -0.002698
     2  C   -0.012628   6.148704  -0.389759  -0.083701   0.136321   0.017663
     3  C    0.016599  -0.389759   6.957449   0.343071  -0.475366  -0.081566
     4  N   -0.002315  -0.083701   0.343071   7.706658   0.362107  -0.202895
     5  C   -0.053598   0.136321  -0.475366   0.362107   7.355078   0.665955
     6  O   -0.002698   0.017663  -0.081566  -0.202895   0.665955   8.324582
     7  N   -0.002337   0.019743  -0.137624  -0.411457   0.123990  -0.082243
     8  C   -0.016207   0.010053  -0.606382  -0.228795  -1.014955  -0.517891
     9  C    0.002053  -0.008724   0.090827   0.092350   1.038992   0.482835
    10  C   -0.004426   0.002301  -0.270725  -0.120593  -3.534894  -0.161646
    11  C    0.000432   0.001710   0.054229   0.000299   1.297530   0.009429
    12  C   -0.000420  -0.000450  -0.051472   0.008219  -0.926111   0.018933
    13  C    0.000954  -0.000739   0.047541   0.039019   0.306501   0.136248
    14  H    0.411551  -0.086272   0.027912   0.000492  -0.002494   0.000008
    15  H    0.416619  -0.063741  -0.009679   0.000655   0.000632  -0.000059
    16  H    0.415097  -0.063310  -0.008851   0.000715   0.000897  -0.000057
    17  H   -0.032227   0.420139  -0.080106   0.007251  -0.001940  -0.000231
    18  H   -0.030552   0.418565  -0.078283   0.006953  -0.003457  -0.000212
    19  H    0.004263  -0.050410   0.423008  -0.055661  -0.011554   0.001689
    20  H    0.006467  -0.054502   0.433968  -0.057134  -0.018019   0.001915
    21  H   -0.002286   0.000161  -0.074767   0.238956   0.028979   0.008435
    22  H   -0.000065  -0.000081   0.004408   0.024663  -0.005506   0.007405
    23  H    0.000009   0.000048   0.003028   0.000082   0.023960  -0.001501
    24  H   -0.000001   0.000020  -0.000338   0.000844  -0.005350   0.000021
    25  H    0.000000   0.000000   0.000027   0.000008   0.003528   0.000000
    26  S   -0.000010  -0.000020  -0.002607   0.000850  -0.117200  -0.000076
    27  O   -0.000000  -0.000000  -0.000015   0.000007  -0.003165  -0.000002
    28  O   -0.000000  -0.000000  -0.000026   0.000003  -0.004420  -0.000004
    29  H   -0.000000   0.000002  -0.000005   0.000006  -0.000402   0.000241
    30  C    0.000000   0.000003   0.000154  -0.000054   0.011910   0.000059
    31  F    0.000000   0.000000   0.000000  -0.000000   0.000046   0.000000
    32  F   -0.000000  -0.000000  -0.000002   0.000000  -0.000340  -0.000001
    33  F   -0.000000   0.000000  -0.000003  -0.000000  -0.000725   0.000000
               7          8          9         10         11         12
     1  C   -0.002337  -0.016207   0.002053  -0.004426   0.000432  -0.000420
     2  C    0.019743   0.010053  -0.008724   0.002301   0.001710  -0.000450
     3  C   -0.137624  -0.606382   0.090827  -0.270725   0.054229  -0.051472
     4  N   -0.411457  -0.228795   0.092350  -0.120593   0.000299   0.008219
     5  C    0.123990  -1.014955   1.038992  -3.534894   1.297530  -0.926111
     6  O   -0.082243  -0.517891   0.482835  -0.161646   0.009429   0.018933
     7  N    7.820695   0.092742  -0.523788   0.405510   0.080741  -0.013884
     8  C    0.092742  19.026252  -0.837500  -4.286619   6.659039  -6.317462
     9  C   -0.523788  -0.837500  12.934962  -6.756524  -1.155300  -3.778888
    10  C    0.405510  -4.286619  -6.756524  29.023664 -14.159593   4.213539
    11  C    0.080741   6.659039  -1.155300 -14.159593  34.628067  -5.781755
    12  C   -0.013884  -6.317462  -3.778888   4.213539  -5.781755  22.007479
    13  C    0.018660  -5.326028   3.571127   1.334195 -12.440169  -0.638722
    14  H    0.000008  -0.000044   0.000003  -0.000002  -0.000000  -0.000000
    15  H    0.000023   0.000019  -0.000036   0.000004   0.000000  -0.000000
    16  H    0.000022   0.000004  -0.000031   0.000003   0.000000  -0.000000
    17  H    0.000143  -0.000440  -0.000189   0.000115   0.000009  -0.000003
    18  H    0.000180  -0.000443  -0.000203   0.000144   0.000007  -0.000001
    19  H   -0.000147  -0.003192   0.002590  -0.000648  -0.000029   0.000014
    20  H    0.000136  -0.005514   0.003376  -0.001308   0.000010   0.000007
    21  H    0.027942   0.019061  -0.000698  -0.000035   0.000045  -0.000074
    22  H    0.227168   0.005746   0.064371  -0.127837   0.035949  -0.003744
    23  H   -0.014125   0.057538   0.308398   0.033423  -0.016740   0.003253
    24  H   -0.009776   0.061786   0.029831   0.183462   0.014103   0.022890
    25  H    0.000448   0.024082   0.000879  -0.074097   0.317288   0.029600
    26  S    0.002324  -1.185343   0.002342   1.808225  -3.322899  -1.987800
    27  O    0.000266  -0.128653  -0.006102   0.258810  -0.814720  -0.132749
    28  O   -0.000016  -0.089392   0.061595   0.087182  -0.623281  -0.393760
    29  H   -0.000666  -0.006038  -0.134622  -0.041685   0.107403   0.129093
    30  C   -0.000665   0.195904  -0.196647  -0.199479   1.166503   0.840944
    31  F   -0.000001   0.003649   0.000931  -0.003675   0.021295   0.073347
    32  F    0.000013  -0.011016   0.003350   0.018026  -0.029882  -0.111392
    33  F   -0.000015  -0.005553   0.055704   0.009756  -0.138508  -0.271881
              13         14         15         16         17         18
     1  C    0.000954   0.411551   0.416619   0.415097  -0.032227  -0.030552
     2  C   -0.000739  -0.086272  -0.063741  -0.063310   0.420139   0.418565
     3  C    0.047541   0.027912  -0.009679  -0.008851  -0.080106  -0.078283
     4  N    0.039019   0.000492   0.000655   0.000715   0.007251   0.006953
     5  C    0.306501  -0.002494   0.000632   0.000897  -0.001940  -0.003457
     6  O    0.136248   0.000008  -0.000059  -0.000057  -0.000231  -0.000212
     7  N    0.018660   0.000008   0.000023   0.000022   0.000143   0.000180
     8  C   -5.326028  -0.000044   0.000019   0.000004  -0.000440  -0.000443
     9  C    3.571127   0.000003  -0.000036  -0.000031  -0.000189  -0.000203
    10  C    1.334195  -0.000002   0.000004   0.000003   0.000115   0.000144
    11  C  -12.440169  -0.000000   0.000000   0.000000   0.000009   0.000007
    12  C   -0.638722  -0.000000  -0.000000  -0.000000  -0.000003  -0.000001
    13  C   16.389696   0.000000  -0.000001  -0.000000  -0.000003  -0.000010
    14  H    0.000000   0.485759  -0.023892  -0.023808  -0.003049  -0.003029
    15  H   -0.000001  -0.023892   0.489298  -0.027850  -0.004770   0.003873
    16  H   -0.000000  -0.023808  -0.027850   0.488784   0.003880  -0.004750
    17  H   -0.000003  -0.003049  -0.004770   0.003880   0.504293  -0.033074
    18  H   -0.000010  -0.003029   0.003873  -0.004750  -0.033074   0.503552
    19  H    0.000268  -0.000060  -0.000324   0.002628   0.003799  -0.005323
    20  H    0.000433  -0.000057   0.002666  -0.000333  -0.005331   0.003810
    21  H   -0.000309  -0.000003   0.000001   0.000001   0.000887   0.000892
    22  H    0.003964  -0.000000  -0.000000  -0.000000   0.000001   0.000001
    23  H   -0.088917  -0.000000  -0.000000   0.000000  -0.000000  -0.000000
    24  H    0.000484   0.000000   0.000000   0.000000   0.000000   0.000000
    25  H    0.010266  -0.000000   0.000000   0.000000  -0.000000   0.000000
    26  S    2.070603  -0.000000  -0.000000  -0.000000  -0.000000   0.000000
    27  O    0.356022  -0.000000  -0.000000  -0.000000  -0.000000  -0.000000
    28  O    0.536344  -0.000000   0.000000  -0.000000  -0.000000   0.000000
    29  H    0.248458  -0.000000   0.000000   0.000000   0.000000  -0.000000
    30  C   -1.151627  -0.000000   0.000000   0.000000   0.000000  -0.000000
    31  F   -0.013932   0.000000   0.000000  -0.000000  -0.000000   0.000000
    32  F    0.017439  -0.000000  -0.000000  -0.000000  -0.000000  -0.000000
    33  F    0.256402  -0.000000   0.000000  -0.000000  -0.000000  -0.000000
              19         20         21         22         23         24
     1  C    0.004263   0.006467  -0.002286  -0.000065   0.000009  -0.000001
     2  C   -0.050410  -0.054502   0.000161  -0.000081   0.000048   0.000020
     3  C    0.423008   0.433968  -0.074767   0.004408   0.003028  -0.000338
     4  N   -0.055661  -0.057134   0.238956   0.024663   0.000082   0.000844
     5  C   -0.011554  -0.018019   0.028979  -0.005506   0.023960  -0.005350
     6  O    0.001689   0.001915   0.008435   0.007405  -0.001501   0.000021
     7  N   -0.000147   0.000136   0.027942   0.227168  -0.014125  -0.009776
     8  C   -0.003192  -0.005514   0.019061   0.005746   0.057538   0.061786
     9  C    0.002590   0.003376  -0.000698   0.064371   0.308398   0.029831
    10  C   -0.000648  -0.001308  -0.000035  -0.127837   0.033423   0.183462
    11  C   -0.000029   0.000010   0.000045   0.035949  -0.016740   0.014103
    12  C    0.000014   0.000007  -0.000074  -0.003744   0.003253   0.022890
    13  C    0.000268   0.000433  -0.000309   0.003964  -0.088917   0.000484
    14  H   -0.000060  -0.000057  -0.000003  -0.000000  -0.000000   0.000000
    15  H   -0.000324   0.002666   0.000001  -0.000000  -0.000000   0.000000
    16  H    0.002628  -0.000333   0.000001  -0.000000   0.000000   0.000000
    17  H    0.003799  -0.005331   0.000887   0.000001  -0.000000   0.000000
    18  H   -0.005323   0.003810   0.000892   0.000001  -0.000000   0.000000
    19  H    0.490983  -0.035466   0.002538   0.000005  -0.000001   0.000000
    20  H   -0.035466   0.491961   0.002565   0.000005  -0.000000   0.000000
    21  H    0.002538   0.002565   0.316363   0.002307   0.000000   0.000004
    22  H    0.000005   0.000005   0.002307   0.311061  -0.000110   0.005535
    23  H   -0.000001  -0.000000   0.000000  -0.000110   0.410213  -0.000094
    24  H    0.000000   0.000000   0.000004   0.005535  -0.000094   0.462353
    25  H   -0.000000  -0.000000  -0.000000  -0.000009   0.000009  -0.004047
    26  S   -0.000000   0.000000  -0.000003   0.000338  -0.001699   0.001122
    27  O    0.000000  -0.000000  -0.000000   0.000001   0.000011   0.000173
    28  O   -0.000000   0.000000  -0.000000   0.000000   0.000006   0.000010
    29  H   -0.000000  -0.000000   0.000000   0.000002  -0.004298   0.000012
    30  C    0.000000  -0.000000   0.000000   0.000006   0.000267   0.000015
    31  F   -0.000000   0.000000   0.000000  -0.000000  -0.000000  -0.000000
    32  F    0.000000  -0.000000  -0.000000  -0.000000  -0.000003   0.000000
    33  F    0.000000  -0.000000  -0.000000  -0.000000  -0.000006   0.000000
              25         26         27         28         29         30
     1  C    0.000000  -0.000010  -0.000000  -0.000000  -0.000000   0.000000
     2  C    0.000000  -0.000020  -0.000000  -0.000000   0.000002   0.000003
     3  C    0.000027  -0.002607  -0.000015  -0.000026  -0.000005   0.000154
     4  N    0.000008   0.000850   0.000007   0.000003   0.000006  -0.000054
     5  C    0.003528  -0.117200  -0.003165  -0.004420  -0.000402   0.011910
     6  O    0.000000  -0.000076  -0.000002  -0.000004   0.000241   0.000059
     7  N    0.000448   0.002324   0.000266  -0.000016  -0.000666  -0.000665
     8  C    0.024082  -1.185343  -0.128653  -0.089392  -0.006038   0.195904
     9  C    0.000879   0.002342  -0.006102   0.061595  -0.134622  -0.196647
    10  C   -0.074097   1.808225   0.258810   0.087182  -0.041685  -0.199479
    11  C    0.317288  -3.322899  -0.814720  -0.623281   0.107403   1.166503
    12  C    0.029600  -1.987800  -0.132749  -0.393760   0.129093   0.840944
    13  C    0.010266   2.070603   0.356022   0.536344   0.248458  -1.151627
    14  H   -0.000000  -0.000000  -0.000000  -0.000000  -0.000000  -0.000000
    15  H    0.000000  -0.000000  -0.000000   0.000000   0.000000   0.000000
    16  H    0.000000  -0.000000  -0.000000  -0.000000   0.000000   0.000000
    17  H   -0.000000  -0.000000  -0.000000  -0.000000   0.000000   0.000000
    18  H    0.000000   0.000000  -0.000000   0.000000  -0.000000  -0.000000
    19  H   -0.000000  -0.000000   0.000000  -0.000000  -0.000000   0.000000
    20  H   -0.000000   0.000000  -0.000000   0.000000  -0.000000  -0.000000
    21  H   -0.000000  -0.000003  -0.000000  -0.000000   0.000000   0.000000
    22  H   -0.000009   0.000338   0.000001   0.000000   0.000002   0.000006
    23  H    0.000009  -0.001699   0.000011   0.000006  -0.004298   0.000267
    24  H   -0.004047   0.001122   0.000173   0.000010   0.000012   0.000015
    25  H    0.411532  -0.004300   0.002471  -0.000713  -0.000119   0.000452
    26  S   -0.004300  17.620293   0.665090   0.666345   0.002271  -1.189009
    27  O    0.002471   0.665090   8.784582  -0.172825   0.000357  -0.262655
    28  O   -0.000713   0.666345  -0.172825   8.683331  -0.001990  -0.272640
    29  H   -0.000119   0.002271   0.000357  -0.001990   0.439330   0.003074
    30  C    0.000452  -1.189009  -0.262655  -0.272640   0.003074   5.885594
    31  F    0.000004  -0.124081  -0.012599  -0.005786   0.000008   0.259849
    32  F   -0.000017   0.137075   0.023394   0.015438  -0.000739   0.041634
    33  F   -0.000007   0.087793   0.017436   0.021137   0.001767   0.046807
              31         32         33
     1  C    0.000000  -0.000000  -0.000000
     2  C    0.000000  -0.000000   0.000000
     3  C    0.000000  -0.000002  -0.000003
     4  N   -0.000000   0.000000  -0.000000
     5  C    0.000046  -0.000340  -0.000725
     6  O    0.000000  -0.000001   0.000000
     7  N   -0.000001   0.000013  -0.000015
     8  C    0.003649  -0.011016  -0.005553
     9  C    0.000931   0.003350   0.055704
    10  C   -0.003675   0.018026   0.009756
    11  C    0.021295  -0.029882  -0.138508
    12  C    0.073347  -0.111392  -0.271881
    13  C   -0.013932   0.017439   0.256402
    14  H    0.000000  -0.000000  -0.000000
    15  H    0.000000  -0.000000   0.000000
    16  H   -0.000000  -0.000000  -0.000000
    17  H   -0.000000  -0.000000  -0.000000
    18  H    0.000000  -0.000000  -0.000000
    19  H   -0.000000   0.000000   0.000000
    20  H    0.000000  -0.000000  -0.000000
    21  H    0.000000  -0.000000  -0.000000
    22  H   -0.000000  -0.000000  -0.000000
    23  H   -0.000000  -0.000003  -0.000006
    24  H   -0.000000   0.000000   0.000000
    25  H    0.000004  -0.000017  -0.000007
    26  S   -0.124081   0.137075   0.087793
    27  O   -0.012599   0.023394   0.017436
    28  O   -0.005786   0.015438   0.021137
    29  H    0.000008  -0.000739   0.001767
    30  C    0.259849   0.041634   0.046807
    31  F    9.135759  -0.043401  -0.044480
    32  F   -0.043401   9.201046  -0.029179
    33  F   -0.044480  -0.029179   9.234421
 Mulliken charges:
               1
     1  C   -0.708048
     2  C   -0.361097
     3  C   -0.134646
     4  N   -0.670602
     5  C    0.823071
     6  O   -0.624337
     7  N   -0.624009
     8  C    0.431591
     9  C    0.652736
    10  C   -1.634571
    11  C    0.088789
    12  C   -0.936751
    13  C    0.315834
    14  H    0.216975
    15  H    0.216562
    16  H    0.216958
    17  H    0.220847
    18  H    0.221359
    19  H    0.231028
    20  H    0.230346
    21  H    0.429038
    22  H    0.444415
    23  H    0.287248
    24  H    0.236942
    25  H    0.282715
    26  S    0.870379
    27  O   -0.575134
    28  O   -0.506539
    29  H    0.258542
    30  C    0.819601
    31  F   -0.246933
    32  F   -0.231443
    33  F   -0.240865
 Sum of Mulliken charges =  -0.00000
 Mulliken charges with hydrogens summed into heavy atoms:
               1
     1  C   -0.057553
     2  C    0.081109
     3  C    0.326728
     4  N   -0.241564
     5  C    0.823071
     6  O   -0.624337
     7  N   -0.179594
     8  C    0.431591
     9  C    0.939983
    10  C   -1.397629
    11  C    0.371504
    12  C   -0.936751
    13  C    0.574375
    26  S    0.870379
    27  O   -0.575134
    28  O   -0.506539
    30  C    0.819601
    31  F   -0.246933
    32  F   -0.231443
    33  F   -0.240865
 Electronic spatial extent (au):  <R**2>=          11881.5530
 Charge=             -0.0000 electrons
 Dipole moment (field-independent basis, Debye):
    X=            -10.7309    Y=              1.4313    Z=              2.7892  Tot=             11.1795
 Quadrupole moment (field-independent basis, Debye-Ang):
   XX=           -121.9817   YY=           -118.3018   ZZ=           -132.9027
   XY=            -30.1798   XZ=              2.4698   YZ=              3.3813
 Traceless Quadrupole moment (field-independent basis, Debye-Ang):
   XX=              2.4137   YY=              6.0936   ZZ=             -8.5073
   XY=            -30.1798   XZ=              2.4698   YZ=              3.3813
 Octapole moment (field-independent basis, Debye-Ang**2):
  XXX=           -277.3003  YYY=              1.4873  ZZZ=             13.6781  XYY=              1.1612
  XXY=            -28.2586  XXZ=             44.2004  XZZ=              3.4822  YZZ=            -15.5303
  YYZ=              8.5504  XYZ=             -0.5836
 Hexadecapole moment (field-independent basis, Debye-Ang**3):
 XXXX=         -12771.8851 YYYY=           -931.0287 ZZZZ=           -392.1352 XXXY=           -580.0123
 XXXZ=             61.4273 YYYX=           -191.4930 YYYZ=              9.5071 ZZZX=             64.8714
 ZZZY=             -1.6270 XXYY=          -2491.9673 XXZZ=          -2444.9966 YYZZ=           -235.5958
 XXYZ=             10.0956 YYXZ=            -13.8826 ZZXY=            -49.9824
 N-N= 1.697580619082D+03 E-N=-6.824281844340D+03  KE= 1.448441885836D+03
 D1PCM: PCM CHGder 1st derivatives, ID1Alg=3 FixD1E=F DoIter=F DoCFld=F I1PDM=0.
 Calling FoFJK, ICntrl=      2127 FMM=F ISym2X=0 I1Cent= 0 IOpClX= 0 NMat=1 NMatS=1 NMatT=0.
 ***** Axes restored to original set *****
 -------------------------------------------------------------------
 Center     Atomic                   Forces (Hartrees/Bohr)
 Number     Number              X              Y              Z
 -------------------------------------------------------------------
      1        6          -0.005005873    0.001428347   -0.000244237
      2        6           0.004714945   -0.005669916    0.000807685
      3        6          -0.005771485    0.007020479   -0.001142665
      4        7           0.013519643   -0.035067224    0.004811533
      5        6          -0.016718116    0.024163627   -0.003799244
      6        8           0.003536956    0.015421348   -0.001949050
      7        7           0.030674518   -0.024967725    0.002884263
      8        6          -0.019316176    0.001472345   -0.000044294
      9        6           0.007295001   -0.001392616    0.001232727
     10        6           0.004452806    0.010100741    0.000992381
     11        6           0.004835076   -0.004968259   -0.002318594
     12        6          -0.018398617    0.023409866   -0.023233090
     13        6          -0.002983298   -0.008715329    0.001167696
     14        1           0.006263953    0.009037739   -0.001081914
     15        1          -0.001349314   -0.003486194    0.009878389
     16        1          -0.001132422   -0.005946121   -0.008608026
     17        1           0.001030587    0.004447604    0.008241810
     18        1           0.001156758    0.002210869   -0.009092508
     19        1           0.001297754   -0.004862550   -0.009659299
     20        1           0.001150503   -0.002017983    0.010613023
     21        1          -0.003081006    0.015831287   -0.002042741
     22        1           0.006651089    0.014553420   -0.001761691
     23        1          -0.009434281   -0.001993920    0.000379434
     24        1          -0.000359720   -0.002123271    0.000761138
     25        1           0.002732692   -0.000950872   -0.001314317
     26       16           0.093056549   -0.126700760    0.128705112
     27        8          -0.043329725    0.044861735   -0.037112984
     28        8          -0.037176363    0.037288058   -0.050545947
     29        1          -0.002296431    0.003246337   -0.000414418
     30        6           0.013264883    0.047155601   -0.041006602
     31        9          -0.061772303   -0.005763304   -0.002922262
     32        9           0.012021168    0.012359377    0.044600598
     33        9           0.020470249   -0.039382737   -0.016781906
 -------------------------------------------------------------------
 Cartesian Forces:  Max     0.128705112 RMS     0.027002227

 GradGradGradGradGradGradGradGradGradGradGradGradGradGradGradGradGradGrad
 Berny optimization.
 FormGI is forming the generalized inverse of G from B-inverse, IUseBI=4.
 Internal  Forces:  Max     0.061998654 RMS     0.013582755
 Search for a local minimum.
 Step number   1 out of a maximum of  175
 All quantities printed in internal units (Hartrees-Bohrs-Radians)
 Mixed Optimization -- RFO/linear search
 Second derivative matrix not updated -- first step.
 ITU=  0
     Eigenvalues ---    0.00230   0.00329   0.00423   0.00425   0.00994
     Eigenvalues ---    0.01169   0.01435   0.01468   0.01636   0.01695
     Eigenvalues ---    0.01942   0.01982   0.02047   0.02085   0.02101
     Eigenvalues ---    0.02120   0.02128   0.02131   0.02139   0.02178
     Eigenvalues ---    0.03755   0.03924   0.04436   0.04933   0.05553
     Eigenvalues ---    0.05673   0.05783   0.07395   0.08034   0.08804
     Eigenvalues ---    0.08839   0.09179   0.11976   0.12668   0.16000
     Eigenvalues ---    0.16000   0.16000   0.16000   0.16000   0.16000
     Eigenvalues ---    0.16000   0.16000   0.16000   0.17812   0.21964
     Eigenvalues ---    0.22000   0.22000   0.22000   0.22004   0.22005
     Eigenvalues ---    0.22964   0.24000   0.24871   0.25000   0.25000
     Eigenvalues ---    0.25000   0.25000   0.25000   0.25000   0.25000
     Eigenvalues ---    0.25000   0.26446   0.29144   0.29806   0.32336
     Eigenvalues ---    0.32338   0.32402   0.32408   0.32500   0.32511
     Eigenvalues ---    0.32559   0.35634   0.35669   0.35736   0.36703
     Eigenvalues ---    0.37889   0.39654   0.40682   0.41304   0.42437
     Eigenvalues ---    0.42459   0.44216   0.45268   0.45965   0.46171
     Eigenvalues ---    0.48739   0.48813   0.48816   0.51154   0.52303
     Eigenvalues ---    0.65646   0.65877   0.95078
 RFO step:  Lambda=-9.05560029D-02 EMin= 2.30000000D-03
 Linear search not attempted -- first point.
 Maximum step size (   0.300) exceeded in Quadratic search.
    -- Step size scaled by   0.707
 Iteration  1 RMS(Cart)=  0.07706381 RMS(Int)=  0.00228928
 Iteration  2 RMS(Cart)=  0.00508133 RMS(Int)=  0.00098726
 Iteration  3 RMS(Cart)=  0.00001428 RMS(Int)=  0.00098724
 Iteration  4 RMS(Cart)=  0.00000005 RMS(Int)=  0.00098724
 Variable       Old X    -DE/DX   Delta X   Delta X   Delta X     New X
                                 (Linear)    (Quad)   (Total)
    R1        2.88352   0.00158   0.00000   0.00288   0.00288   2.88640
    R2        2.09832  -0.01069   0.00000  -0.01814  -0.01814   2.08018
    R3        2.09938  -0.01026   0.00000  -0.01745  -0.01745   2.08193
    R4        2.09920  -0.01022   0.00000  -0.01738  -0.01738   2.08182
    R5        2.89703  -0.00570   0.00000  -0.01054  -0.01054   2.88649
    R6        2.10115  -0.00899   0.00000  -0.01532  -0.01532   2.08583
    R7        2.10104  -0.00903   0.00000  -0.01538  -0.01538   2.08565
    R8        2.74526  -0.00093   0.00000  -0.00140  -0.00140   2.74386
    R9        2.10229  -0.01044   0.00000  -0.01781  -0.01781   2.08448
   R10        2.10233  -0.01036   0.00000  -0.01769  -0.01769   2.08465
   R11        2.57610  -0.00314   0.00000  -0.00362  -0.00362   2.57248
   R12        1.95071  -0.01591   0.00000  -0.02183  -0.02183   1.92888
   R13        2.30677   0.01561   0.00000   0.01059   0.01059   2.31736
   R14        2.58718   0.01253   0.00000   0.01470   0.01470   2.60189
   R15        2.72027  -0.03892   0.00000  -0.05646  -0.05646   2.66381
   R16        1.95043  -0.01529   0.00000  -0.02097  -0.02097   1.92945
   R17        2.67711  -0.01426   0.00000  -0.01955  -0.01955   2.65756
   R18        2.66292  -0.00415   0.00000  -0.00581  -0.00580   2.65711
   R19        2.64340  -0.01018   0.00000  -0.01300  -0.01300   2.63040
   R20        2.02996   0.00475   0.00000   0.00733   0.00733   2.03729
   R21        2.63954  -0.01352   0.00000  -0.01741  -0.01741   2.62214
   R22        2.04658   0.00223   0.00000   0.00352   0.00352   2.05011
   R23        2.64030  -0.00855   0.00000  -0.01077  -0.01077   2.62953
   R24        2.04497   0.00250   0.00000   0.00395   0.00395   2.04891
   R25        2.63846  -0.00009   0.00000   0.00017   0.00017   2.63862
   R26        3.39368  -0.01304   0.00000  -0.02596  -0.02596   3.36773
   R27        2.04602   0.00264   0.00000   0.00417   0.00417   2.05019
   R28        2.90434  -0.05303   0.00000  -0.05016  -0.05016   2.85418
   R29        2.90272  -0.05222   0.00000  -0.04924  -0.04924   2.85348
   R30        3.43238   0.01427   0.00000   0.02971   0.02971   3.46209
   R31        2.61160  -0.06200   0.00000  -0.07579  -0.07579   2.53581
   R32        2.61079  -0.04766   0.00000  -0.05818  -0.05818   2.55261
   R33        2.61083  -0.04729   0.00000  -0.05774  -0.05774   2.55309
    A1        1.91257   0.00326   0.00000   0.00953   0.00949   1.92206
    A2        1.92559   0.00231   0.00000   0.00635   0.00632   1.93191
    A3        1.92600   0.00232   0.00000   0.00636   0.00634   1.93234
    A4        1.89643  -0.00259   0.00000  -0.00694  -0.00698   1.88945
    A5        1.89704  -0.00263   0.00000  -0.00709  -0.00713   1.88991
    A6        1.90572  -0.00284   0.00000  -0.00867  -0.00868   1.89704
    A7        1.94147  -0.00107   0.00000  -0.00146  -0.00146   1.94001
    A8        1.90034   0.00147   0.00000   0.00545   0.00544   1.90579
    A9        1.90183   0.00136   0.00000   0.00496   0.00496   1.90679
   A10        1.91025  -0.00015   0.00000  -0.00122  -0.00123   1.90902
   A11        1.91099  -0.00013   0.00000  -0.00125  -0.00125   1.90974
   A12        1.89844  -0.00150   0.00000  -0.00657  -0.00659   1.89185
   A13        1.93742  -0.00441   0.00000  -0.00912  -0.00910   1.92832
   A14        1.90676   0.00236   0.00000   0.00676   0.00676   1.91352
   A15        1.90450   0.00252   0.00000   0.00748   0.00748   1.91198
   A16        1.90698   0.00105   0.00000   0.00180   0.00182   1.90880
   A17        1.90546   0.00107   0.00000   0.00206   0.00208   1.90754
   A18        1.90240  -0.00259   0.00000  -0.00908  -0.00910   1.89331
   A19        2.12694  -0.00494   0.00000  -0.01124  -0.01124   2.11570
   A20        2.07760  -0.00078   0.00000  -0.00355  -0.00355   2.07405
   A21        2.07864   0.00572   0.00000   0.01479   0.01479   2.09343
   A22        2.08117   0.01716   0.00000   0.03560   0.03560   2.11676
   A23        2.08475  -0.02682   0.00000  -0.05563  -0.05563   2.02912
   A24        2.11726   0.00966   0.00000   0.02004   0.02004   2.13730
   A25        2.23301  -0.00525   0.00000  -0.01194  -0.01194   2.22106
   A26        2.02771   0.00753   0.00000   0.01980   0.01980   2.04752
   A27        2.02245  -0.00228   0.00000  -0.00786  -0.00786   2.01459
   A28        2.17375  -0.00569   0.00000  -0.01176  -0.01176   2.16199
   A29        2.05335  -0.00504   0.00000  -0.01040  -0.01040   2.04295
   A30        2.05608   0.01073   0.00000   0.02215   0.02216   2.07825
   A31        2.10524  -0.00707   0.00000  -0.01547  -0.01548   2.08976
   A32        2.15600  -0.00499   0.00000  -0.01630  -0.01630   2.13970
   A33        2.02194   0.01206   0.00000   0.03177   0.03178   2.05372
   A34        2.11704  -0.00049   0.00000  -0.00106  -0.00105   2.11599
   A35        2.09861   0.00036   0.00000   0.00087   0.00086   2.09947
   A36        2.06753   0.00012   0.00000   0.00019   0.00018   2.06772
   A37        2.09754  -0.00997   0.00000  -0.02178  -0.02178   2.07576
   A38        2.08198   0.00639   0.00000   0.01484   0.01484   2.09682
   A39        2.10367   0.00358   0.00000   0.00694   0.00693   2.11060
   A40        2.08559   0.01120   0.00000   0.02470   0.02468   2.11026
   A41        2.11066  -0.02117   0.00000  -0.04466  -0.04465   2.06600
   A42        2.08694   0.00997   0.00000   0.01995   0.01996   2.10689
   A43        2.10488  -0.00440   0.00000  -0.00853  -0.00855   2.09633
   A44        2.08409  -0.00087   0.00000  -0.00439  -0.00439   2.07971
   A45        2.09421   0.00527   0.00000   0.01292   0.01293   2.10714
   A46        1.88006   0.01657   0.00000   0.02931   0.02246   1.90252
   A47        1.87225   0.02244   0.00000   0.04481   0.03812   1.91037
   A48        2.17966  -0.04239   0.00000  -0.12185  -0.12656   2.05310
   A49        1.72731   0.03767   0.00000   0.17173   0.17006   1.89737
   A50        1.86890  -0.00552   0.00000  -0.02243  -0.02458   1.84432
   A51        1.88310  -0.01010   0.00000  -0.03125  -0.03257   1.85053
   A52        1.91246  -0.00927   0.00000  -0.02035  -0.02027   1.89219
   A53        1.91061   0.00714   0.00000   0.01554   0.01548   1.92610
   A54        1.91313   0.00721   0.00000   0.01536   0.01530   1.92843
   A55        1.90652   0.00053   0.00000   0.00030   0.00039   1.90691
   A56        1.90682   0.00008   0.00000  -0.00127  -0.00119   1.90563
   A57        1.91425  -0.00575   0.00000  -0.00972  -0.00990   1.90435
    D1        3.14039   0.00003   0.00000   0.00021   0.00021   3.14060
    D2        1.03387  -0.00008   0.00000  -0.00092  -0.00092   1.03295
    D3       -1.03437   0.00009   0.00000   0.00099   0.00099  -1.03338
    D4        1.05304  -0.00025   0.00000  -0.00115  -0.00116   1.05189
    D5       -1.05348  -0.00036   0.00000  -0.00228  -0.00228  -1.05576
    D6       -3.12172  -0.00019   0.00000  -0.00036  -0.00037  -3.12209
    D7       -1.05444   0.00028   0.00000   0.00140   0.00141  -1.05303
    D8        3.12222   0.00017   0.00000   0.00027   0.00028   3.12251
    D9        1.05399   0.00034   0.00000   0.00219   0.00219   1.05618
   D10       -3.13683  -0.00009   0.00000  -0.00051  -0.00051  -3.13734
   D11        1.04225  -0.00015   0.00000  -0.00139  -0.00138   1.04086
   D12       -1.03609   0.00011   0.00000   0.00119   0.00118  -1.03492
   D13       -1.03614   0.00097   0.00000   0.00455   0.00455  -1.03159
   D14       -3.14025   0.00091   0.00000   0.00367   0.00367  -3.13658
   D15        1.06460   0.00117   0.00000   0.00625   0.00623   1.07083
   D16        1.04333  -0.00103   0.00000  -0.00495  -0.00495   1.03838
   D17       -1.06078  -0.00108   0.00000  -0.00584  -0.00582  -1.06661
   D18       -3.13912  -0.00083   0.00000  -0.00326  -0.00326   3.14080
   D19        3.13512   0.00013   0.00000   0.00074   0.00074   3.13586
   D20       -0.00243   0.00006   0.00000   0.00024   0.00024  -0.00219
   D21       -1.04408   0.00096   0.00000   0.00456   0.00456  -1.03953
   D22        2.10154   0.00089   0.00000   0.00406   0.00407   2.10561
   D23        1.03496  -0.00093   0.00000  -0.00417  -0.00417   1.03079
   D24       -2.10260  -0.00100   0.00000  -0.00466  -0.00466  -2.10726
   D25        0.00255   0.00006   0.00000   0.00037   0.00037   0.00293
   D26       -3.13550  -0.00012   0.00000  -0.00080  -0.00080  -3.13630
   D27        3.14011   0.00012   0.00000   0.00083   0.00083   3.14094
   D28        0.00206  -0.00006   0.00000  -0.00034  -0.00035   0.00171
   D29        3.13478   0.00022   0.00000   0.00140   0.00140   3.13617
   D30       -0.00043   0.00020   0.00000   0.00120   0.00120   0.00076
   D31       -0.00320   0.00002   0.00000   0.00017   0.00017  -0.00302
   D32       -3.13841  -0.00000   0.00000  -0.00003  -0.00002  -3.13843
   D33        0.01363   0.00010   0.00000   0.00077   0.00079   0.01443
   D34       -3.12659   0.00023   0.00000   0.00160   0.00158  -3.12501
   D35       -3.13432   0.00015   0.00000   0.00106   0.00107  -3.13325
   D36        0.00864   0.00028   0.00000   0.00188   0.00186   0.01050
   D37       -3.13835   0.00003   0.00000   0.00020   0.00017  -3.13818
   D38        0.00327   0.00019   0.00000   0.00126   0.00127   0.00454
   D39        0.00187  -0.00011   0.00000  -0.00064  -0.00066   0.00121
   D40       -3.13969   0.00005   0.00000   0.00041   0.00044  -3.13925
   D41        3.13804  -0.00048   0.00000  -0.00306  -0.00310   3.13494
   D42       -0.00204  -0.00014   0.00000  -0.00092  -0.00095  -0.00300
   D43       -0.00228  -0.00036   0.00000  -0.00227  -0.00232  -0.00461
[...]
 549,-0.00029191,-0.00021256,0.00000893,-0.00069390,-0.00020377,0.00018
 716,0.00053373,0.00081150,-0.00013001,-0.03744652,-0.46433995,-0.22238
 214,-0.00751637,-0.00994378,-0.01950198,0.04919814,0.48677765,0.000000
 36,-0.00000793,-0.00000492,-0.00000834,0.00001599,-0.00000168,0.000073
 95,-0.00004912,-0.00003464,-0.00022526,-0.00002446,0.00002346,0.000472
 33,-0.00026406,-0.00009291,-0.00014379,0.00014288,0.00009658,-0.000635
 87,0.00006848,0.00016166,0.00045000,0.00052100,-0.00001984,-0.00069929
 ,0.00028825,0.00009785,0.00053679,-0.00075429,-0.00076408,-0.00342534,
 -0.00003608,0.00118613,0.00419251,-0.00722288,0.00707344,0.00130405,-0
 .00103497,0.00011656,-0.00000572,0.00000109,-0.00000129,0.00000093,-0.
 00000162,-0.00000152,-0.00000351,0.00000326,0.00000815,0.00000361,0.00
 000476,0.00001027,0.00000066,-0.00000640,-0.00000107,-0.00002396,0.000
 01106,0.00002022,-0.00000259,-0.00000109,-0.00000036,0.00000904,0.0000
 1803,-0.00002990,0.00004136,0.00003301,-0.00007517,-0.00009399,-0.0000
 5700,-0.00011821,-0.00031235,-0.00002466,-0.00023185,-0.00002365,0.000
 19554,0.00018759,-0.02214391,-0.22781755,-0.21449668,-0.00559555,0.009
 44651,0.01718230,0.03209803,0.25461004,0.20231522,-0.00000054,-0.00000
 620,-0.00000241,-0.00000890,0.00001032,0.00000602,0.00003465,-0.000036
 77,-0.00000271,-0.00013415,0.00008451,0.00001304,0.00042899,-0.0004702
 8,-0.00005815,-0.00000985,0.00032376,0.00004059,0.00008306,-0.00144410
 ,-0.00029329,-0.00529995,-0.00089618,-0.00026989,-0.00260593,-0.028238
 59,-0.00523727,-0.00103933,0.00011625,0.00006133,-0.00388311,0.0031775
 5,0.00037685,0.01003672,0.02067251,0.00383667,-0.07674263,-0.06913463,
 -0.01287268,-0.00000221,0.00000181,0.00000055,-0.00000126,0.00000116,-
 0.00000196,-0.00000135,-0.00000031,0.00000182,0.00000168,-0.00000019,0
 .00000200,0.00000117,0.00000132,-0.00000199,-0.00001252,0.00000386,0.0
 0000790,-0.00000583,0.00000346,-0.00000244,0.00002675,0.00001978,-0.00
 001680,-0.00041202,-0.00010592,0.00000668,0.00115951,0.00030423,0.0001
 5206,0.00009567,-0.00005020,-0.00001052,0.00058213,0.00115502,0.000229
 00,-0.00028794,0.00398041,0.00150723,0.00034967,-0.00077567,-0.0001874
 1,-0.00036808,-0.00147709,-0.00033507,0.07831199,-0.00000040,-0.000000
 22,-0.00000040,-0.00000104,0.00000130,0.00000127,0.00000067,-0.0000026
 4,-0.00000620,-0.00002200,0.00000346,0.00000848,0.00007019,-0.00008744
 ,-0.00004422,0.00002021,0.00004406,-0.00000556,-0.00001883,-0.00007984
 ,0.00001590,-0.00019419,0.00138929,-0.00132472,-0.00010922,-0.00106654
 ,-0.00121111,-0.00001916,0.00063461,0.00030156,0.00361491,-0.00044100,
 -0.00116402,-0.00500510,-0.01508708,-0.00346516,-0.06861796,-0.3250289
 3,-0.05320014,-0.00000021,0.00000005,0.00000002,0.00000012,-0.00000032
 ,0.00000055,-0.00000012,0.00000035,0.,0.00000029,0.00000016,0.00000005
 ,0.00000004,-0.00000112,0.00000024,-0.00000212,0.00000096,0.00000055,-
 0.00000128,0.00000105,0.00000134,0.00000128,0.00000381,0.00000059,-0.0
 0002014,0.00002168,0.00006726,0.00003975,0.00052574,0.00105599,-0.0000
 5818,-0.00006541,0.00013061,-0.00040826,-0.00058050,-0.00020772,-0.000
 82295,-0.00286501,-0.00034323,0.00016187,0.00056691,-0.00006895,-0.001
 54022,0.00106559,0.00040509,0.07287437,0.34106293,-0.00000061,-0.00000
 148,0.00000076,0.00000062,0.00000060,0.00000187,-0.00000122,0.00000025
 ,0.00002937,-0.00000212,0.00001218,-0.00004038,-0.00001610,-0.00004247
 ,0.00012358,-0.00003214,-0.00000318,0.00003046,0.00000892,-0.00002449,
 -0.00018551,-0.00008746,-0.00105002,0.00789734,-0.00019915,-0.00120533
 ,0.00498038,0.00004984,0.00027840,-0.00096349,0.00043774,-0.00104380,0
 .00551268,-0.00105023,-0.00329253,0.00271637,-0.01264489,-0.05384492,-
 0.05026122,-0.00000035,-0.00000026,0.00000003,-0.00000064,0.00000167,-
 0.00000022,0.00000108,-0.00000037,-0.00000186,-0.00000056,-0.00000258,
 -0.00000251,0.00000022,0.00000226,-0.00000070,0.00000091,0.00000104,-0
 .00000397,-0.00000134,-0.00000067,0.00000043,0.00000186,-0.00000532,-0
 .00000764,-0.00000167,0.00005955,-0.00030167,0.00015105,0.00090762,-0.
 00462001,-0.00000045,0.00010079,-0.00069606,-0.00005324,-0.00018706,0.
 00055258,0.00059558,0.00059117,-0.00278625,-0.00048321,0.00005918,0.00
 018852,-0.00062095,-0.00037389,-0.00074767,0.01329223,0.05904885,0.038
 43467,0.00000417,0.00001944,0.00000844,-0.00000034,-0.00003507,-0.0000
 0132,-0.00016898,0.00008030,0.00002003,0.00044082,0.00021740,0.0000093
 4,-0.00065329,-0.00043895,0.00010254,0.00033274,0.00028294,-0.00008814
 ,-0.00001178,-0.00007460,0.00004813,-0.00011465,-0.00016868,0.00032962
 ,-0.00100314,0.00002131,-0.00156012,-0.00068649,0.00017510,-0.00136019
 ,-0.00127936,0.00020208,0.00117118,-0.00406816,-0.00485952,0.01338011,
 -0.00020630,-0.00130167,0.00065996,0.00002385,0.00000808,0.00000486,-0
 .00000665,-0.00000286,-0.00000175,-0.00000184,-0.00000877,-0.00000844,
 -0.00000519,-0.00000521,-0.00000548,0.00000137,0.00001144,-0.00000399,
 0.00003203,-0.00002105,-0.00002031,-0.00001304,-0.00000455,-0.00000459
 ,-0.00001103,-0.00004754,0.00000147,-0.00002688,-0.00002531,0.00004797
 ,-0.00019282,0.00000596,-0.00003590,-0.00006400,0.00001404,-0.00009386
 ,-0.00003120,-0.00044194,0.00066623,-0.04182754,-0.01288428,0.03851674
 ,-0.00414154,0.01820193,-0.01964864,0.00335796,-0.00377931,-0.01110617
 ,-0.00042052,0.00030358,0.00136425,0.56560064,-0.00000225,0.00002166,-
 0.00000064,0.00001736,-0.00002325,-0.00000731,-0.00014704,0.00011315,-
 0.00000413,0.00039241,-0.00004530,0.00000625,-0.00102792,0.00099063,0.
 00014930,0.00020216,-0.00062855,-0.00000679,0.00138298,-0.00026216,-0.
 00002180,-0.00080066,-0.00055638,-0.00007782,0.00107198,0.00037247,0.0
 0022764,-0.00044569,-0.00040791,-0.00069381,0.00081587,0.00012462,0.00
 011819,-0.00108135,0.00374678,0.00268629,-0.00183716,0.00036185,0.0006
 8830,0.00001063,-0.00000145,0.00000030,0.00000420,-0.00001028,0.000009
 72,0.00000280,-0.00000113,-0.00000855,-0.00000604,0.00000513,-0.000011
 68,-0.00000281,-0.00001106,0.00001356,0.00003605,-0.00001399,-0.000021
 24,0.00001631,-0.00001055,0.00000838,-0.00003593,-0.00002975,0.0000084
 5,-0.00006865,-0.00001821,0.00001231,0.00004827,0.00005432,-0.00010648
 ,0.00006699,0.00000433,0.00005622,-0.00016172,-0.00093681,0.00090347,-
 0.01128873,-0.03045103,0.03672329,0.00538096,-0.01146976,0.01326939,0.
 00260249,-0.01531849,-0.03130583,0.00024395,-0.00018654,-0.00088528,-0
 .00119553,0.56096904,-0.00002301,-0.00008284,-0.00001523,-0.00003317,0
 .00014601,0.00007204,0.00046590,-0.00030259,0.00005444,-0.00179970,-0.
 00046837,-0.00038941,0.00414920,-0.00207469,-0.00016444,-0.00093150,0.
 00106666,-0.00000740,-0.00651385,-0.00044706,-0.00009744,0.00475642,0.
 00138817,0.00046736,-0.00251847,-0.00170596,-0.00152508,-0.00372042,0.
 00073880,-0.00127725,0.00016388,0.00418507,0.00053432,-0.00753288,-0.0
 0323868,0.01114064,0.00200010,-0.00359332,-0.00074856,-0.00005775,-0.0
 0000523,0.00000051,0.00000157,0.00002546,-0.00000146,0.00000807,0.0000
 0747,-0.00000141,0.00000921,-0.00001922,-0.00001853,0.00000156,-0.0000
 0091,-0.00000878,-0.00012770,0.00005211,0.00002716,-0.00004544,0.00003
 472,0.00001519,0.00006706,0.00020951,0.00016587,-0.00010846,0.00027605
 ,0.00022962,-0.00025743,-0.00021005,-0.00001480,-0.00054544,-0.0003205
 0,-0.00002352,0.00026558,-0.00011632,0.00126405,0.02915945,0.03422872,
 -0.16604956,0.00684020,-0.01615638,0.01170372,-0.00091349,0.00858189,0
 .00850866,0.00039418,-0.00030556,0.00087896,0.00545257,0.00798015,0.52
 152452,-0.00001013,-0.00004600,-0.00001045,-0.00001691,0.00008226,0.00
 002398,0.00030249,-0.00017679,-0.00000810,-0.00102808,-0.00028801,-0.0
 0014379,0.00223907,-0.00083913,-0.00018316,-0.00056439,0.00041933,0.00
 010112,-0.00309822,-0.00017590,0.00012367,0.00244339,0.00081533,0.0000
 4118,-0.00101638,-0.00081983,-0.00052512,-0.00142315,0.00039194,-0.000
 33906,0.00026295,0.00179584,0.00077837,-0.00265748,-0.00171617,0.00582
 430,0.00116655,-0.00155607,0.00026070,-0.00003715,-0.00000554,-0.00000
 332,0.00000421,0.00001041,-0.00000119,0.00000219,0.00000911,0.00000851
 ,0.00000860,-0.00000200,0.00000201,0.00000029,-0.00000865,-0.00000189,
 -0.00007886,0.00003586,0.00003156,-0.00001531,0.00001302,0.00000718,0.
 00003887,0.00011622,0.00004309,-0.00001720,0.00015694,0.00001878,-0.00
 002190,-0.00007674,-0.00011920,-0.00018859,-0.00009186,-0.00011387,0.0
 0002669,0.00009194,0.00016410,-0.02916222,-0.00675699,-0.01094752,0.00
 763989,-0.00483934,0.00362822,0.00407017,0.00534109,0.00462058,0.00010
 057,-0.00013950,0.00006266,-0.30091170,-0.07229367,0.03907992,0.418790
 95,-0.00000323,-0.00001928,-0.00000341,-0.00000901,0.00003253,0.000010
 38,0.00012490,-0.00007865,0.00000011,-0.00041587,-0.00008782,-0.000057
 56,0.00095363,-0.00048712,-0.00007990,-0.00022471,0.00026721,0.0000336
 9,-0.00137600,-0.00003634,0.00004404,0.00106510,0.00029973,0.00006262,
 -0.00052437,-0.00030901,-0.00030931,-0.00062762,0.00022830,-0.00018187
 ,-0.00001527,0.00062369,0.00047121,-0.00116294,-0.00091186,0.00256749,
 0.00064739,-0.00082417,-0.00003947,-0.00001393,-0.00000129,-0.00000089
 ,0.00000056,0.00000537,-0.00000203,0.00000033,0.00000295,0.00000383,0.
 00000374,-0.00000199,0.00000197,0.00000054,-0.00000076,-0.00000300,-0.
 00003291,0.00001404,0.00001357,-0.00000917,0.00000621,0.00000130,0.000
 01940,0.00004489,0.00001645,-0.00000072,0.00006057,0.00001162,-0.00003
 193,-0.00003894,-0.00003095,-0.00008274,-0.00003089,-0.00005609,0.0000
 1469,0.00010147,0.00002399,-0.01325220,-0.00160679,-0.00413505,0.00068
 863,0.00072873,-0.00002527,0.00188314,0.00431819,0.00384341,-0.0000009
 9,-0.00001841,0.00020261,-0.07304096,-0.09255625,0.01312830,0.09917306
 ,0.10611073,0.00000848,0.00003387,0.00000636,0.00001388,-0.00006009,-0
 .00002490,-0.00020154,0.00012613,-0.00000883,0.00074308,0.00018752,0.0
 0014087,-0.00170350,0.00082610,0.00009025,0.00038514,-0.00042478,-0.00
 002876,0.00262462,0.00018221,-0.00005346,-0.00202981,-0.00062801,-0.00
 015333,0.00107407,0.00070071,0.00072550,0.00145977,-0.00033251,0.00058
 066,-0.00001561,-0.00172692,-0.00068371,0.00257741,0.00166628,-0.00550
 439,-0.00093588,0.00163338,-0.00011997,0.00002457,0.00000245,0.0000006
 6,-0.00000132,-0.00000922,0.00000102,-0.00000233,-0.00000426,-0.000002
 19,-0.00000496,0.00000528,0.00000371,-0.00000060,0.00000250,0.00000299
 ,0.00005540,-0.00002283,-0.00001606,0.00001685,-0.00001218,-0.00000553
 ,-0.00002846,-0.00008601,-0.00005200,0.00003337,-0.00011987,-0.0000609
 7,0.00008308,0.00007904,0.00006540,0.00019766,0.00009527,0.00006679,-0
 .00003306,0.00006041,-0.00042433,0.02602562,0.00629913,0.00741722,-0.0
 0283462,0.00197954,-0.00168369,-0.00144876,-0.00170772,-0.00184954,-0.
 00004476,0.00009025,-0.00038209,0.04350602,0.01447378,-0.08194120,-0.0
 1544969,-0.00205479,0.06498362,-0.00000143,-0.00000817,-0.00000242,-0.
 00000278,0.00001421,0.00000109,0.00005862,-0.00003354,-0.00000276,-0.0
 0017314,-0.00005304,-0.00000646,0.00033817,-0.00005395,-0.00004311,-0.
 00010289,0.00002224,0.00003109,-0.00029776,-0.00000145,0.00001381,0.00
 016774,0.00050695,-0.00006005,-0.00027566,-0.00028608,0.00003560,0.000
 42423,-0.00000010,0.00030339,-0.00035135,0.00014855,0.00023638,-0.0000
 8757,0.00023829,-0.00043015,0.00065232,-0.00012466,0.00014054,-0.00000
 718,-0.00000151,-0.00000112,0.00000124,0.00000162,-0.00000037,0.000000
 02,0.00000227,0.00000269,0.00000233,0.00000087,0.00000218,0.00000018,-
 0.00000218,-0.00000008,-0.00001391,0.00000728,0.00000725,0.00000008,0.
 00000182,0.00000069,0.00000780,0.00001781,0.00000082,0.00000758,0.0000
 1975,-0.00001281,0.00003094,-0.00001679,-0.00000772,-0.00000744,-0.000
 00928,-0.00001187,-0.00003928,0.00015378,-0.00027531,0.00379240,0.0027
 5983,0.00022517,0.00108449,-0.00146819,0.00097712,0.00031411,0.0000075
 8,0.00139194,-0.00000858,0.00001510,-0.00014171,-0.07290819,-0.0200697
 2,-0.01607808,-0.02632548,-0.04987277,-0.03241390,0.08545661,0.0000041
 0,0.00000149,0.00000141,-0.00000319,-0.00000795,-0.00000845,0.00000427
 ,-0.00000862,-0.00001172,0.00006611,0.00007760,0.00005607,-0.00010731,
 -0.00013070,-0.00004764,0.00003595,0.00011235,0.00002575,0.00027570,0.
 00015010,0.00004591,-0.00030704,0.00014716,-0.00003143,-0.00014722,0.0
 0008358,0.00001748,0.00069528,0.00034917,0.00041904,0.00031469,-0.0006
 8811,0.00008964,0.00026231,0.00138096,-0.00042262,0.00035107,0.0000072
 2,0.00010740,0.00000293,0.00000127,-0.00000044,-0.00000152,0.00000043,
 -0.00000384,-0.00000282,0.00000004,0.00000490,0.00000174,0.00000135,0.
 00000882,0.00000087,0.00000339,-0.00000409,0.00000024,0.00000002,0.000
 00785,-0.00000024,-0.00000106,-0.00000529,0.00000641,-0.00001510,-0.00
 003153,0.00004225,-0.00002479,-0.00004665,0.00001917,0.00000656,-0.000
 00831,0.00012553,0.00005605,-0.00002369,0.00001009,0.00037681,-0.00060
 828,-0.00268351,-0.01495161,0.00002724,-0.00177105,0.00738630,-0.00011
 041,0.00097921,0.00047271,-0.00501088,-0.00026146,0.00012148,0.0001413
 8,-0.02145211,-0.20485395,-0.12003905,-0.03908849,-0.02772542,-0.02195
 039,0.04156119,0.31012173,0.00000817,0.00002211,0.00000435,0.00000635,
 -0.00004046,-0.00002487,-0.00011278,0.00007346,-0.00003052,0.00048297,
 0.00016426,0.00013374,-0.00104937,0.00037140,-0.00000368,0.00026555,-0
 .00016980,0.00004178,0.00161861,0.00015982,0.00012785,-0.00114514,-0.0
 0043076,-0.00021163,0.00060625,0.00052899,0.00027075,0.00083372,0.0003
 0278,0.00029954,0.00132360,-0.00116099,-0.00045847,0.00140301,0.003178
 97,-0.00037264,-0.00054980,0.00066298,0.00010110,0.00001622,0.00000226
 ,-0.00000073,-0.00000096,-0.00000763,-0.00000176,-0.00000428,-0.000001
 36,0.00000457,-0.00000102,0.00000723,0.00001159,0.00000014,0.00000037,
 0.00000077,0.00003017,-0.00001245,0.00000115,0.00001054,-0.00001153,-0
 .00000735,-0.00001448,-0.00005923,-0.00006734,0.00003814,-0.00007185,-
 0.00009970,0.00004763,0.00005746,-0.00004098,0.00026352,0.00012600,-0.
 00001050,-0.00020019,0.00001241,-0.00044042,-0.00954711,-0.03749027,-0
 .00602795,-0.00082429,0.00782524,-0.00103651,0.00273748,-0.00493683,-0
 .01601738,-0.00038827,0.00013394,-0.00011608,-0.01788114,-0.12200718,-
 0.18725565,-0.01790700,-0.01300997,0.00688902,0.03413179,0.17155087,0.
 18758428,-0.00000178,-0.00000399,-0.00000302,0.00000239,0.00001095,-0.
 00000269,0.00003858,-0.00000978,-0.00001387,-0.00010632,-0.00008242,0.
 00000264,0.00011687,0.00026503,-0.00001794,-0.00008140,-0.00017509,0.0
 0004940,0.00010379,-0.00002269,0.00001446,0.00014502,-0.00030799,-0.00
 024672,0.00078081,0.00005024,0.00044541,-0.00026965,-0.00010813,0.0001
 5431,0.00056543,0.00034051,0.00018575,0.00080732,-0.00055507,-0.000927
 96,-0.00015742,0.00030129,0.00036812,-0.00000683,-0.00000287,-0.000001
 89,0.00000334,-0.00000133,0.00000225,0.00000071,0.00000331,0.00000233,
 0.00000112,0.00000342,0.00000116,-0.00000089,-0.00000709,0.00000408,-0
 .00000765,0.00000602,0.00000562,0.00000644,-0.00000143,0.00000326,-0.0
 0000006,0.00001347,-0.00000441,-0.00000393,0.00001635,-0.00002786,0.00
 009607,0.00003279,-0.00002863,0.00002189,0.00001626,-0.00000772,-0.000
 11522,-0.00014211,-0.00010091,-0.00356040,0.00740923,0.00245953,0.0005
 4380,0.00153023,-0.00242600,0.00161734,-0.00279747,-0.00041177,0.00003
 214,-0.00012150,-0.00062894,-0.14103894,0.09816947,-0.05160811,-0.0705
 2374,0.03612222,-0.02168023,0.00826377,0.02106685,0.00580197,0.2027274
 2,-0.00000073,-0.00001377,-0.00000013,-0.00001021,0.00001581,0.0000109
 2,0.00007365,-0.00006008,0.00001253,-0.00024556,0.00001044,-0.00004010
 ,0.00066048,-0.00063070,-0.00002973,-0.00013889,0.00037983,-0.00002818
 ,-0.00105718,0.00008634,-0.00002313,0.00071190,0.00016756,0.00001903,-
 0.00069839,0.00014532,-0.00013779,-0.00035734,0.00029453,0.00007763,-0
 .00001735,0.00033509,0.00000713,-0.00157733,0.00118981,0.00080327,-0.0
 0016761,-0.00135441,-0.00029627,-0.00000579,0.00000141,0.00000102,-0.0
 0000298,0.00000685,-0.00000479,-0.00000052,-0.00000079,0.00000147,0.00
 000250,-0.00000523,0.00000144,0.00000144,0.00000758,-0.00000765,-0.000
 02013,0.00000643,0.00000647,-0.00001210,0.00000775,-0.00000295,0.00001
 949,0.00002102,0.00001576,0.00001820,0.00001964,0.00003689,-0.00012605
 ,-0.00008636,0.00002210,-0.00007332,-0.00003643,0.00001137,0.00021185,
 0.00032146,-0.00007181,0.01915481,-0.01722358,-0.00540070,0.00020912,-
 0.00484514,0.00869931,-0.00269248,0.00804788,0.00401043,-0.00007569,0.
 00006757,0.00055613,0.10024430,-0.20897119,0.07703766,0.02046833,0.011
 89036,0.00069573,0.02652226,-0.07245047,-0.00577027,-0.16101866,0.2826
 5544,0.00000458,0.00002038,0.00000282,0.00000970,-0.00003109,-0.000020
 35,-0.00010703,0.00007753,-0.00002363,0.00040660,0.00008168,0.00009999
 ,-0.00095880,0.00057341,0.00000629,0.00023895,-0.00031713,0.00003960,0
 .00147677,0.00002806,0.00007818,-0.00103809,-0.00022123,-0.00012116,0.
 00065091,0.00004097,0.00015621,0.00078399,-0.00021114,0.00014741,-0.00
 015492,-0.00074106,-0.00013695,0.00236366,-0.00136710,-0.00103284,0.00
 042458,0.00141850,-0.00003102,0.00001234,0.00000048,-0.00000096,0.0000
 0138,-0.00000841,0.00000205,-0.00000182,-0.00000041,0.00000118,-0.0000
 0180,0.00000729,0.00000482,-0.00000096,-0.00000447,0.00000548,0.000028
 63,-0.00001079,-0.00000411,0.00001260,-0.00001100,-0.00000222,-0.00001
 954,-0.00004401,-0.00004266,0.00000787,-0.00004490,-0.00007452,0.00011
 019,0.00009057,-0.00001075,0.00011896,0.00007927,-0.00002327,-0.000228
 59,-0.00016458,-0.00021932,-0.02270072,0.02208928,0.00384299,-0.001714
 00,0.00934372,-0.01093808,0.00238832,-0.00378302,-0.00249937,-0.000202
 50,0.00008448,-0.00023067,-0.05346944,0.07782357,-0.11704733,-0.009066
 56,-0.00044705,0.01202088,0.01198636,-0.02413904,0.01675363,0.06863838
 ,-0.08021278,0.09929770\\-0.00000011,0.00000502,-0.00000066,-0.0000007
 0,0.00000438,0.00000140,-0.00000086,0.00000529,0.00000104,-0.00000206,
 0.00000076,-0.00000404,0.00000451,0.00000433,0.00000389,-0.00000096,-0
 .00000211,-0.00000372,0.00000283,0.00000343,-0.00000687,-0.00000173,-0
 .00000239,0.00000330,0.00000133,0.,-0.00000389,-0.00000205,-0.00000129
 ,0.00000523,0.00000027,-0.00000005,0.00000491,-0.00000058,-0.00000501,
 -0.00000107,0.00000112,0.00000291,-0.00000310,-0.00000097,0.00000480,0
 .00000149,0.00000072,0.00000294,-0.00000415,-0.00000084,0.00000925,-0.
 00000212,-0.00000074,-0.00000007,0.00000244,-0.00000218,0.00000581,0.0
 0000550,-0.00000118,0.00000869,-0.00000199,0.00000034,0.00000170,-0.00
 000413,-0.00000223,0.00000359,0.00000733,-0.00000204,-0.00000052,0.000
 00819,0.00000092,0.00000153,-0.00000534,-0.00000137,-0.00000212,0.0000
 0875,-0.00000122,-0.00000387,0.00000739,0.00000247,-0.00000074,0.00000
 013,-0.00000123,-0.00000130,0.00000316,0.00000091,-0.00000368,-0.00000
 626,0.00000079,-0.00000086,-0.00000748,0.00000015,-0.00000620,-0.00000
 404,0.00000414,-0.00001005,-0.00000214,0.00000010,-0.00001324,0.000002
 28,0.00000244,-0.00001092,-0.00000544\\\@


 Everything starts as somebody's daydream.
                           -- Larry Niven
 Job cpu time:       0 days  4 hours 10 minutes 53.4 seconds.
 File lengths (MBytes):  RWF=    754 Int=      0 D2E=      0 Chk=     21 Scr=      1
 Normal termination of Gaussian 09 at Sun Feb 24 15:32:20 2019.
WARNING: pbs_rusage is deprecated and values produced may not be accurate


=============================================================================
                                     Resource usage:
                                       CPU time:              17:44:38
   JobId:    6063524.r-man2            Elapsed time:          04:27:27
   Project:             q95            Requested time:        40:00:00
   Service Units:     17.83 
                                       Max physical memory:      934MB
                                       Max virtual memory:      2020MB
                                       Requested memory:           0MB

                                       Number of cpus:               4

                                       Max jobfs disk use:       0.7GB
                                       Requested jobfs:         20.0GB
=============================================================================

