 Entering Gaussian System, Link 0=/apps/gaussian/g09e01/g09/g09
 AtFile(1): /home/507/hio507/Basis/6-31pGd.gbs
 Initial command:
 /apps/gaussian/g09e01/g09/l1.exe "/jobfs/local/5977771.r-man2/Gau-26590.inp" -scrdir="/jobfs/local/5977771.r-man2/"
 Entering Link 1 = /apps/gaussian/g09e01/g09/l1.exe PID=     26591.
  
 Copyright (c) 1988,1990,1992,1993,1995,1998,2003,2009,2015,
            Gaussian, Inc.  All Rights Reserved.
  
 This is part of the Gaussian(R) 09 program.  It is based on
 the Gaussian(R) 03 system (copyright 2003, Gaussian, Inc.),
 the Gaussian(R) 98 system (copyright 1998, Gaussian, Inc.),
 the Gaussian(R) 94 system (copyright 1995, Gaussian, Inc.),
 the Gaussian 92(TM) system (copyright 1992, Gaussian, Inc.),
 the Gaussian 90(TM) system (copyright 1990, Gaussian, Inc.),
 the Gaussian 88(TM) system (copyright 1988, Gaussian, Inc.),
 the Gaussian 86(TM) system (copyright 1986, Carnegie Mellon
 University), and the Gaussian 82(TM) system (copyright 1983,
 Carnegie Mellon University). Gaussian is a federally registered
 trademark of Gaussian, Inc.
  
 This software contains proprietary and confidential information,
 including trade secrets, belonging to Gaussian, Inc.
  
 This software is provided under written license and may be
 used, copied, transmitted, or stored only in accord with that
 written license.
  
 The following legend is applicable only to US Government
 contracts under FAR:
  
                    RESTRICTED RIGHTS LEGEND
  
 Use, reproduction and disclosure by the US Government is
 subject to restrictions as set forth in subparagraphs (a)
 and (c) of the Commercial Computer Software - Restricted
 Rights clause in FAR 52.227-19.
  
 Gaussian, Inc.
 340 Quinnipiac St., Bldg. 40, Wallingford CT 06492
  
  
 ---------------------------------------------------------------
 Warning -- This program may not be used in any manner that
 competes with the business of Gaussian, Inc. or will provide
 assistance to any competitor of Gaussian, Inc.  The licensee
 of this program is prohibited from giving any competitor of
 Gaussian, Inc. access to this program.  By using this program,
 the user acknowledges that Gaussian, Inc. is engaged in the
 business of creating and licensing software in the field of
 computational chemistry and represents and warrants to the
 licensee that it is not a competitor of Gaussian, Inc. and that
 it will not use this program in any manner prohibited above.
 ---------------------------------------------------------------
  

 Cite this work as:
 Gaussian 09, Revision E.01,
 M. J. Frisch, G. W. Trucks, H. B. Schlegel, G. E. Scuseria, 
 M. A. Robb, J. R. Cheeseman, G. Scalmani, V. Barone, B. Mennucci, 
 G. A. Petersson, H. Nakatsuji, M. Caricato, X. Li, H. P. Hratchian, 
 A. F. Izmaylov, J. Bloino, G. Zheng, J. L. Sonnenberg, M. Hada, 
 M. Ehara, K. Toyota, R. Fukuda, J. Hasegawa, M. Ishida, T. Nakajima, 
 Y. Honda, O. Kitao, H. Nakai, T. Vreven, J. A. Montgomery, Jr., 
 J. E. Peralta, F. Ogliaro, M. Bearpark, J. J. Heyd, E. Brothers, 
 K. N. Kudin, V. N. Staroverov, T. Keith, R. Kobayashi, J. Normand, 
 K. Raghavachari, A. Rendell, J. C. Burant, S. S. Iyengar, J. Tomasi, 
 M. Cossi, N. Rega, J. M. Millam, M. Klene, J. E. Knox, J. B. Cross, 
 V. Bakken, C. Adamo, J. Jaramillo, R. Gomperts, R. E. Stratmann, 
 O. Yazyev, A. J. Austin, R. Cammi, C. Pomelli, J. W. Ochterski, 
 R. L. Martin, K. Morokuma, V. G. Zakrzewski, G. A. Voth, 
 P. Salvador, J. J. Dannenberg, S. Dapprich, A. D. Daniels, 
 O. Farkas, J. B. Foresman, J. V. Ortiz, J. Cioslowski, 
 and D. J. Fox, Gaussian, Inc., Wallingford CT, 2013.
 
 ******************************************
 Gaussian 09:  ES64L-G09RevE.01 30-Nov-2015
                21-Feb-2019 
 ******************************************
 %chk=4SulfOxyCF3_EtO.M062X_6-31pGd_bsse.chk
 %mem=196608000
 %nproc=4
 Will use up to    4 processors via shared memory.
 ----------------------------------------------------------------------
 # M062X/Gen 6D SCF=Tight INT(grid=ultrafine) Counterpoise=2 maxdisk=67
 1088640
 ----------------------------------------------------------------------
 1/38=1,62=2/1;
 2/12=2,17=6,18=5,40=1/2;
 1/38=1,53=2,62=2,63=1/22;
 3/5=7,8=2,11=2,16=1,25=1,30=1,74=-55,75=-5/1,2,3;
 4//1;
 5/5=2,32=2,38=5/2;
 6/7=2,8=2,9=2,10=2,28=1/1;
 1/53=2,62=2,63=1/22;
 3/5=7,6=11,8=2,11=2,16=1,25=1,30=1,74=-55,75=-5,82=7/1,2,3;
 4//1;
 5/5=2,32=2,38=5/2;
 6/7=2,8=2,9=2,10=2,28=1/1;
 1/53=2,62=2,63=1/22(-4);
 99/5=1,9=1/99;
 ----------------------------------
 4SulfOxyCF3_EtO.M062X_6-31pGd_bsse
 ----------------------------------
 Symbolic Z-matrix:
 Charge = -1 Multiplicity = 1 in supermolecule
 Charge =  0 Multiplicity = 1 in fragment      1.
 Charge = -1 Multiplicity = 1 in fragment      2.
 C(Fragment=1)        -2.16915   2.1811   -0.17375 
 C(Fragment=1)        -0.79143   1.57097   0.07232 
 C(Fragment=1)         0.31769   2.60253  -0.10045 
 N(Fragment=1)         1.60316   1.98573   0.13957 
 C(Fragment=1)         2.73446   2.71217   0.02275 
 O(Fragment=1)         2.75036   3.90578  -0.28315 
 N(Fragment=1)         3.88254   1.96047   0.28634 
 C(Fragment=1)         5.18089   2.38607   0.25431 
 C(Fragment=1)         5.58806   3.70759  -0.05096 
 C(Fragment=1)         6.16961   1.41199   0.55557 
 C(Fragment=1)         7.50824   1.73965   0.54793 
 C(Fragment=1)         7.89169   3.05445   0.243 
 C(Fragment=1)         6.934     4.02963  -0.05594 
 H(Fragment=1)        -2.9625    1.43684  -0.05004 
 H(Fragment=1)        -2.24503   2.58646  -1.18975 
 H(Fragment=1)        -2.36752   3.00208   0.52551 
 H(Fragment=1)        -0.61361   0.73469  -0.61397 
 H(Fragment=1)        -0.73376   1.14669   1.08157 
 H(Fragment=1)         0.1684    3.44352   0.59229 
 H(Fragment=1)         0.28976   3.02794  -1.11396 
 H(Fragment=1)         1.62898   0.98047   0.40001 
 H(Fragment=1)         3.7489    0.95297   0.53422 
 H(Fragment=1)         4.83659   4.45197  -0.27363 
 H(Fragment=1)         5.84149   0.40355   0.79568 
 H(Fragment=1)         8.26462   0.99727   0.78491 
 S(Fragment=1)         9.57879   3.46522   0.18423 
 O(Fragment=1)         10.37606   2.50893   0.94331 
 O(Fragment=1)         9.77177   4.90445   0.31847 
 H(Fragment=1)         7.25414   5.04282  -0.28156 
 C(Fragment=1)         10.05156   3.12414  -1.58373 
 F(Fragment=1)         11.34325   3.40249  -1.7582 
 F(Fragment=1)         9.84641   1.84334  -1.88757 
 F(Fragment=1)         9.33667   3.87986  -2.4165 
 O(Fragment=2)         1.52271  -0.72566   0.83148 
 O(Fragment=2)         3.76371  -0.70497   0.95947 
 C(Fragment=2)         2.63726  -1.26797   1.04006 
 C(Fragment=2)         2.61009  -2.75433   1.42728 
 C(Fragment=2)         3.98229  -3.36707   1.6782 
 H(Fragment=2)         2.08151  -3.2844    0.62531 
 H(Fragment=2)         1.96974  -2.84265   2.31358 
 H(Fragment=2)         4.61134  -3.28384   0.78729 
 H(Fragment=2)         3.89969  -4.42631   1.95056 
 H(Fragment=2)         4.4996   -2.83902   2.48441 
 
                          Input orientation:                          
 ---------------------------------------------------------------------
 Center     Atomic      Atomic             Coordinates (Angstroms)
 Number     Number       Type             X           Y           Z
 ---------------------------------------------------------------------
      1          6           0       -2.169152    2.181103   -0.173746
      2          6           0       -0.791433    1.570968    0.072315
      3          6           0        0.317694    2.602530   -0.100448
      4          7           0        1.603164    1.985727    0.139567
      5          6           0        2.734456    2.712166    0.022750
      6          8           0        2.750360    3.905776   -0.283151
      7          7           0        3.882545    1.960467    0.286337
      8          6           0        5.180887    2.386074    0.254306
      9          6           0        5.588064    3.707594   -0.050964
     10          6           0        6.169611    1.411985    0.555571
     11          6           0        7.508243    1.739654    0.547928
     12          6           0        7.891692    3.054447    0.243001
     13          6           0        6.934002    4.029629   -0.055943
     14          1           0       -2.962498    1.436835   -0.050039
     15          1           0       -2.245025    2.586457   -1.189754
     16          1           0       -2.367515    3.002079    0.525508
     17          1           0       -0.613614    0.734690   -0.613974
     18          1           0       -0.733757    1.146689    1.081571
     19          1           0        0.168405    3.443522    0.592290
     20          1           0        0.289756    3.027938   -1.113964
     21          1           0        1.628976    0.980466    0.400011
     22          1           0        3.748897    0.952968    0.534225
     23          1           0        4.836589    4.451965   -0.273626
     24          1           0        5.841493    0.403554    0.795683
     25          1           0        8.264619    0.997271    0.784913
     26         16           0        9.578791    3.465219    0.184232
     27          8           0       10.376055    2.508928    0.943312
     28          8           0        9.771773    4.904446    0.318468
     29          1           0        7.254136    5.042823   -0.281556
     30          6           0       10.051564    3.124137   -1.583727
     31          9           0       11.343246    3.402494   -1.758201
     32          9           0        9.846411    1.843335   -1.887574
     33          9           0        9.336672    3.879864   -2.416497
     34          8           0        1.522708   -0.725661    0.831478
     35          8           0        3.763713   -0.704966    0.959471
     36          6           0        2.637264   -1.267969    1.040057
     37          6           0        2.610094   -2.754327    1.427278
     38          6           0        3.982286   -3.367074    1.678200
     39          1           0        2.081508   -3.284404    0.625308
     40          1           0        1.969743   -2.842650    2.313582
     41          1           0        4.611345   -3.283845    0.787291
     42          1           0        3.899689   -4.426313    1.950555
     43          1           0        4.499604   -2.839023    2.484407
 ---------------------------------------------------------------------
                    Distance matrix (angstroms):
                    1          2          3          4          5
     1  C    0.000000
     2  C    1.526736   0.000000
     3  C    2.523366   1.524510   0.000000
     4  N    3.790344   2.431181   1.445852   0.000000
     5  C    4.936193   3.706303   2.422382   1.349511   0.000000
     6  O    5.214217   4.256991   2.765807   2.276255   1.232288
     7  N    6.073170   4.695059   3.642803   2.284241   1.397368
     8  C    7.365345   6.030432   4.880917   3.601880   2.478906
     9  C    7.906936   6.728918   5.385203   4.345176   3.023142
    10  C    8.405855   6.979608   6.007719   4.621111   3.711422
    11  C    9.714302   8.315004   7.271104   5.924295   4.900065
    12  C   10.107274   8.810590   7.595238   6.379533   5.173273
    13  C    9.289690   8.108255   6.768613   5.712582   4.402055
    14  H    1.094823   2.178644   3.481529   4.602446   5.838412
    15  H    1.096513   2.176458   2.784668   4.115402   5.126519
    16  H    1.096498   2.176580   2.786002   4.116822   5.134874
    17  H    2.169241   1.096345   2.149388   2.654623   3.940228
    18  H    2.169376   1.096328   2.149928   2.655665   3.949724
    19  H    2.764902   2.167515   1.099745   2.094913   2.728347
    20  H    2.765387   2.167716   1.099530   2.093463   2.714478
    21  H    4.024488   2.512858   2.144997   1.038771   2.088826
    22  H    6.085461   4.605418   3.859666   2.413817   2.094152
    23  H    7.365269   6.332018   4.885777   4.087554   2.744760
    24  H    8.262560   6.773612   6.012562   4.571344   3.947251
    25  H   10.544386   9.102143   8.155633   6.765242   5.839903
    26  S   11.823335  10.542402   9.305546   8.111813   6.887531
    27  O   12.599107  11.240604  10.112805   8.825155   7.699531
    28  O   12.257429  11.079440   9.739298   8.676238   7.376814
    29  H    9.848828   8.769845   7.355410   6.438685   5.094318
    30  C   12.337879  11.078149   9.860042   8.697194   7.502704
    31  F   13.659692  12.407889  11.178144  10.023869   8.818141
    32  F   12.141872  10.820308   9.724539   8.490035   7.415127
    33  F   11.844818  10.681933   9.398811   8.362318   7.134613
    34  O    4.805162   3.347548   3.660246   2.799435   3.733768
    35  O    6.694211   5.168779   4.892649   3.546836   3.689662
    36  C    6.039126   4.555441   4.654237   3.530833   4.109237
    37  C    7.054285   5.666964   6.023700   5.014002   5.645414
    38  C    8.488354   7.053475   7.226963   6.056408   6.422986
    39  H    6.969818   5.668706   6.188195   5.314041   6.062034
    40  H    6.968167   5.668103   6.181165   5.307913   6.057117
    41  H    8.761528   7.298657   7.339818   6.102219   6.329247
    42  H    9.219622   7.842308   8.151193   7.047550   7.485458
    43  H    8.760123   7.298032   7.333509   6.096380   6.323859
                    6          7          8          9         10
     6  O    0.000000
     7  N    2.321720   0.000000
     8  C    2.916473   1.366696   0.000000
     9  C    2.854076   2.464755   1.416121   0.000000
    10  C    4.314362   2.367275   1.420276   2.444566   0.000000
    11  C    5.293414   3.641823   2.433241   2.813992   1.378174
    12  C    5.237833   4.155951   2.792009   2.412410   2.400197
    13  C    4.191638   3.702699   2.423003   1.383937   2.794692
    14  H    6.227901   6.873278   8.204169   8.846946   9.152202
    15  H    5.245608   6.333863   7.567670   7.994440   8.673618
    16  H    5.259585   6.340774   7.578350   8.007578   8.683998
    17  H    4.634819   4.746424   6.087464   6.900431   6.916553
    18  H    4.649096   4.754458   6.099463   6.914209   6.928459
    19  H    2.765242   4.010972   5.133946   5.464084   6.335847
    20  H    2.741426   4.001059   5.119308   5.446464   6.322289
    21  H    3.206500   2.460060   3.822699   4.828559   4.563745
    22  H    3.222461   1.046119   2.045176   3.363473   2.463942
    23  H    2.156564   2.726045   2.159898   1.080917   3.421402
    24  H    4.794219   2.553603   2.158674   3.420192   1.087312
    25  H    6.325126   4.514300   3.423408   3.899807   2.147940
    26  S    6.858572   5.892531   4.528910   4.004992   3.997020
    27  O    7.848989   6.549664   5.242099   5.034903   4.364379
    28  O    7.117552   6.584152   5.236655   4.367191   5.022855
    29  H    4.645093   4.603373   3.412305   2.147512   3.880716
    30  C    7.457215   6.550425   5.258004   4.755273   4.751592
    31  F    8.733085   7.869030   6.561857   6.010813   6.006844
    32  F    7.561864   6.348804   5.162299   4.998212   4.435525
    33  F    6.923247   6.382547   5.160926   4.435932   4.995388
    34  O    4.919322   3.616807   4.837178   6.079439   5.122437
    35  O    4.881591   2.751684   3.472775   4.880566   3.230009
    36  C    5.341470   3.541415   4.521001   5.886746   4.460309
    37  C    6.877660   5.014994   5.865881   7.267044   5.548711
    38  C    7.632750   5.507261   6.046720   7.457846   5.374392
    39  H    7.278141   5.555835   6.472875   7.851198   6.226838
    40  H    7.272801   5.553239   6.472373   7.847867   6.231485
    41  H    7.503316   5.318356   5.723323   7.108929   4.953050
    42  H    8.702535   6.600067   7.136340   8.545007   6.417496
    43  H    7.497436   5.314827   5.721812   7.104298   4.957863
                   11         12         13         14         15
    11  C    0.000000
    12  C    1.403102   0.000000
    13  C    2.436883   1.399113   0.000000
    14  H   10.492173  10.977977  10.230510   0.000000
    15  H    9.942981  10.248163   9.360706   1.770692   0.000000
    16  H    9.956145  10.263230   9.376149   1.770663   1.769144
    17  H    8.265866   8.857534   8.254364   2.515608   2.534179
    18  H    8.280516   8.873619   8.270418   2.516349   3.084766
    19  H    7.535142   7.740965   6.821806   3.773848   3.120078
    20  H    7.518519   7.722143   6.802117   3.773686   2.574056
    21  H    5.929926   6.599065   6.135844   4.635996   4.484913
    22  H    3.840801   4.654437   4.467554   6.754133   6.447285
    23  H    3.894781   3.399061   2.150557   8.364614   7.380289
    24  H    2.150489   3.396470   3.881657   8.904671   8.608066
    25  H    1.086001   2.159795   3.416544  11.266700  10.810988
    26  S    2.719745   1.737380   2.714986  12.706421  11.935773
    27  O    2.995406   2.638198   3.893427  13.418388  12.800299
    28  O    3.897709   2.638730   2.993064  13.203098  12.330906
    29  H    3.415192   2.152969   1.086254  10.836806   9.853559
    30  C    3.595724   2.829636   3.587929  13.212305  12.314643
    31  F    4.773941   4.004893   4.767852  14.540837  13.624616
    32  F    3.377787   3.134816   4.076381  12.946426  12.134332
    33  F    4.087966   3.137230   3.371568  12.760804  11.718085
    34  O    6.479569   7.429635   7.258265   5.056732   5.408449
    35  O    4.490773   5.629096   5.787762   7.130803   7.180361
    36  C    5.745819   6.850372   6.908525   6.313605   6.607980
    37  C    6.705295   7.939751   8.180354   7.127558   7.677566
    38  C    6.307817   7.653704   8.150527   8.619419   9.080148
    39  H    7.395715   8.607289   8.803742   6.941772   7.515341
    40  H    7.402028   8.610025   8.802655   6.944617   7.714457
    41  H    5.803865   7.157574   7.719629   8.963762   9.240074
    42  H    7.280672   8.649486   9.205219   9.244918   9.838598
    43  H    5.810864   7.159829   7.717386   8.966011   9.403474
                   16         17         18         19         20
    16  H    0.000000
    17  H    3.084743   0.000000
    18  H    2.533939   1.749013   0.000000
    19  H    2.574922   3.066659   2.515698   0.000000
    20  H    3.122440   2.514966   3.067092   1.760323   0.000000
    21  H    4.480471   2.473415   2.464683   2.869997   2.877112
    22  H    6.450537   4.516360   4.520099   4.361898   4.357486
    23  H    7.391881   6.605958   6.617414   4.853732   4.838152
    24  H    8.614705   6.615526   6.623284   6.439464   6.430857
    25  H   10.822608   8.991600   9.004505   8.459902   8.445578
    26  S   11.960150  10.581967  10.607989   9.419254   9.389499
    27  O   12.759951  11.240369  11.193870  10.256354  10.307045
    28  O   12.289190  11.229986  11.183436   9.717714   9.771479
    29  H    9.868747   8.976191   8.991352   7.316349   7.297620
    30  C   12.597512  10.972507  11.284382  10.124915   9.773578
    31  F   13.905418  12.304184  12.609796  11.419438  11.078582
    32  F   12.503826  10.595437  11.010953  10.118010   9.660818
    33  F   12.100162  10.590062  11.005465   9.659209   9.179818
    34  O    5.396620   2.964090   2.942766   4.390152   4.403910
    35  O    7.177916   4.869224   4.865262   5.501911   5.504733
    36  C    6.598931   4.161090   4.146815   5.337968   5.348403
    37  C    7.663289   5.170323   5.149638   6.713597   6.728779
    38  C    9.067237   6.572734   6.555233   7.880933   7.894754
    39  H    7.702184   4.995260   5.269580   6.994715   6.788307
    40  H    7.494657   5.295440   4.974091   6.761925   7.002445
    41  H    9.396055   6.738870   6.948837   8.064440   7.882227
    42  H    9.822914   7.320019   7.299473   8.814855   8.831125
    43  H    9.225676   6.965371   6.726211   7.861919   8.067982
                   21         22         23         24         25
    21  H    0.000000
    22  H    2.124342   0.000000
    23  H    4.774293   3.752157   0.000000
    24  H    4.270208   2.179260   4.306145   0.000000
    25  H    6.646818   4.522893   4.980643   2.494826   0.000000
    26  S    8.331873   6.357796   4.865365   4.869811   2.859830
    27  O    8.896222   6.819648   5.995166   5.001665   2.601607
    28  O    9.039326   7.206648   4.991128   5.994403   4.213680
    29  H    6.972065   5.447854   2.488717   4.967778   4.304058
    30  C    8.914624   6.994521   5.538543   5.548681   3.650642
    31  F   10.241637   8.302382   6.755882   6.766480   4.661595
    32  F    8.573437   6.620993   5.874359   5.031124   3.218707
    33  F    8.703321   6.963959   5.016966   5.883801   4.439332
    34  O    1.763045   2.803938   6.245869   4.464114   6.958738
    35  O    2.776829   1.711665   5.409763   2.360680   4.815209
    36  C    2.545931   2.534591   6.267411   3.622264   6.071536
    37  C    3.995816   3.979755   7.731817   4.562134   6.816215
    38  C    5.106167   4.475032   8.104124   4.295710   6.179309
    39  H    4.294725   4.554536   8.261353   5.269492   7.522571
    40  H    4.288834   4.553923   8.253718   5.275633   7.530424
    41  H    5.218127   4.331101   7.811468   3.887190   5.627999
    42  H    6.065772   5.564656   9.200467   5.332162   7.058797
    43  H    5.212841   4.329661   7.802488   3.894453   5.637444
                   26         27         28         29         30
    26  S    0.000000
    27  O    1.458192   0.000000
    28  O    1.458300   2.548351   0.000000
    29  H    2.847773   4.203248   2.591847   0.000000
    30  C    1.861594   2.621011   2.620330   3.633539   0.000000
    31  F    2.624935   3.005343   3.006317   4.646717   1.332804
    32  F    2.644713   2.955918   3.773936   4.419944   1.332240
    33  F    2.644683   3.774665   2.952815   3.201156   1.332554
    34  O    9.104003   9.426390  10.000419   8.207528   9.664138
    35  O    7.197677   7.352037   8.244585   6.838149   7.788900
    36  C    8.445135   8.611806   9.461534   7.930212   9.008146
    37  C    9.422879   9.393947  10.543999   9.234868   9.949772
    38  C    8.957289   8.714800  10.187496   9.234284   9.466368
    39  H   10.097584  10.122417  11.237953   9.844856  10.462840
    40  H   10.110437  10.058981  11.174509   9.840743  10.775314
    41  H    8.401729   8.173888   9.690094   8.801146   8.733839
    42  H    9.881719   9.542297  11.144871  10.290732  10.360793
    43  H    8.416199   8.093716   9.615008   8.795538   9.106770
                   31         32         33         34         35
    31  F    0.000000
    32  F    2.165232   0.000000
    33  F    2.165081   2.164958   0.000000
    34  O   10.963169   9.125624   9.634223   0.000000
    35  O    9.039153   7.183225   7.967164   2.244753   0.000000
    36  C   10.268281   8.379919   9.128528   1.256916   1.261886
    37  C   11.149963   9.191900  10.199704   2.377577   2.397824
    38  C   10.574480   8.616906   9.897177   3.707226   2.766073
    39  H   11.669426   9.638568  10.640335   2.627152   3.097576
    40  H   11.976802  10.082166  11.038002   2.622616   3.101876
    41  H    9.823703   7.800564   9.160333   4.010727   2.720062
    42  H   11.421543   9.455328  10.845484   4.538414   3.853461
    43  H   10.187821   8.344282   9.620787   4.007541   2.724181
                   36         37         38         39         40
    36  C    0.000000
    37  C    1.536209   0.000000
    38  C    2.573432   1.523592   0.000000
    39  H    2.132344   1.097060   2.174482   0.000000
    40  H    2.132386   1.096989   2.174640   1.748688   0.000000
    41  H    2.832780   2.166790   1.093783   2.535017   3.082576
    42  H    3.521060   2.175411   1.096808   2.523097   2.522790
    43  H    2.832432   2.166782   1.093813   3.082499   2.535624
                   41         42         43
    41  H    0.000000
    42  H    1.779009   0.000000
    43  H    1.757998   1.778872   0.000000
 Stoichiometry    C14H18F3N2O5S(1-)
 Framework group  C1[X(C14H18F3N2O5S)]
 Deg. of freedom   123
 Full point group                 C1      NOp   1
 Largest Abelian subgroup         C1      NOp   1
 Largest concise Abelian subgroup C1      NOp   1
                         Standard orientation:                         
 ---------------------------------------------------------------------
 Center     Atomic      Atomic             Coordinates (Angstroms)
 Number     Number       Type             X           Y           Z
 ---------------------------------------------------------------------
      1          6           0       -7.116737   -2.702563    0.399938
      2          6           0       -6.020820   -1.645326    0.289764
      3          6           0       -4.645187   -2.279430    0.117490
      4          7           0       -3.637904   -1.246933    0.018397
      5          6           0       -2.337837   -1.581222   -0.120367
      6          8           0       -1.934141   -2.744367   -0.171910
      7          7           0       -1.503308   -0.463122   -0.198150
      8          6           0       -0.143822   -0.448035   -0.337536
      9          6           0        0.668189   -1.603616   -0.440827
     10          6           0        0.469667    0.832154   -0.381512
     11          6           0        1.835541    0.955674   -0.517509
     12          6           0        2.623045   -0.201205   -0.618321
     13          6           0        2.039001   -1.471947   -0.578018
     14          1           0       -8.102608   -2.243125    0.524881
     15          1           0       -6.943031   -3.362449    1.258261
     16          1           0       -7.150768   -3.330434   -0.498353
     17          1           0       -6.012368   -1.006619    1.180805
     18          1           0       -6.216488   -0.975727   -0.555982
     19          1           0       -4.626018   -2.911703   -0.782123
     20          1           0       -4.420472   -2.941752    0.965901
     21          1           0       -3.941090   -0.254168    0.057681
     22          1           0       -1.956717    0.477861   -0.140374
     23          1           0        0.202304   -2.578625   -0.414602
     24          1           0       -0.167356    1.710321   -0.308913
     25          1           0        2.304871    1.934179   -0.558191
     26         16           0        4.349953   -0.056413   -0.742069
     27          8           0        4.730174    1.266902   -1.222270
     28          8           0        4.938769   -1.271940   -1.292001
     29          1           0        2.668050   -2.353185   -0.665571
     30          6           0        4.918128   -0.059186    1.030698
     31          9           0        6.245807    0.050667    1.070265
     32          9           0        4.385430    0.963612    1.697767
     33          9           0        4.566259   -1.192901    1.636156
     34          8           0       -4.596578    1.380425    0.139946
     35          8           0       -2.482518    2.105265   -0.070462
     36          6           0       -3.725489    2.282616    0.055736
     37          6           0       -4.235961    3.730353    0.114167
     38          6           0       -3.146655    4.789493    0.000296
     39          1           0       -4.792679    3.835776    1.053577
     40          1           0       -4.979215    3.840295   -0.685127
     41          1           0       -2.415024    4.679408    0.805877
     42          1           0       -3.569921    5.800229    0.047690
     43          1           0       -2.601738    4.683456   -0.942173
 ---------------------------------------------------------------------
 Rotational constants (GHZ):      0.3254416      0.0774936      0.0665416
 Counterpoise: doing full dimer calculation.
 General basis read from cards:  (6D, 7F)
 There are   515 symmetry adapted cartesian basis functions of A   symmetry.
 There are   515 symmetry adapted basis functions of A   symmetry.
   515 basis functions,   896 primitive gaussians,   515 cartesian basis functions
   100 alpha electrons      100 beta electrons
       nuclear repulsion energy      2440.7116285613 Hartrees.
 NAtoms=   43 NActive=   43 NUniq=   43 SFac= 1.00D+00 NAtFMM=   60 NAOKFM=F Big=F
 Integral buffers will be    131072 words long.
 Raffenetti 2 integral format.
 Two-electron integral symmetry is turned on.
 One-electron integrals computed using PRISM.
 NBasis=   515 RedAO= T EigKep=  1.49D-06  NBF=   515
 NBsUse=   513 1.00D-06 EigRej=  6.60D-07 NBFU=   513
 ExpMin= 4.05D-02 ExpMax= 2.19D+04 ExpMxC= 3.30D+03 IAcc=3 IRadAn=         5 AccDes= 0.00D+00
 Harris functional with IExCor= 1009 and IRadAn=       5 diagonalized for initial guess.
 HarFok:  IExCor= 1009 AccDes= 0.00D+00 IRadAn=         5 IDoV= 1 UseB2=F ITyADJ=14
 ICtDFT=  3500011 ScaDFX=  1.000000  1.000000  1.000000  1.000000
 FoFCou: FMM=F IPFlag=           0 FMFlag=      100000 FMFlg1=           0
         NFxFlg=           0 DoJE=T BraDBF=F KetDBF=T FulRan=T
         wScrn=  0.000000 ICntrl=     500 IOpCl=  0 I1Cent=   200000004 NGrid=           0
         NMat0=    1 NMatS0=      1 NMatT0=    0 NMatD0=    1 NMtDS0=    0 NMtDT0=    0
 Petite list used in FoFCou.
 Requested convergence on RMS density matrix=1.00D-08 within 128 cycles.
 Requested convergence on MAX density matrix=1.00D-06.
 Requested convergence on             energy=1.00D-06.
 No special actions if energy rises.
 SCF Done:  E(RM062X) =  -1727.24881920     A.U. after   16 cycles
            NFock= 16  Conv=0.32D-08     -V/T= 2.0071

 **********************************************************************

            Population analysis using the SCF density.

 **********************************************************************

 Orbital symmetries:
       Occupied  (A) (A) (A) (A) (A) (A) (A) (A) (A) (A) (A) (A)
                 (A) (A) (A) (A) (A) (A) (A) (A) (A) (A) (A) (A)
                 (A) (A) (A) (A) (A) (A) (A) (A) (A) (A) (A) (A)
                 (A) (A) (A) (A) (A) (A) (A) (A) (A) (A) (A) (A)
                 (A) (A) (A) (A) (A) (A) (A) (A) (A) (A) (A) (A)
                 (A) (A) (A) (A) (A) (A) (A) (A) (A) (A) (A) (A)
                 (A) (A) (A) (A) (A) (A) (A) (A) (A) (A) (A) (A)
                 (A) (A) (A) (A) (A) (A) (A) (A) (A) (A) (A) (A)
                 (A) (A) (A) (A)
       Virtual   (A) (A) (A) (A) (A) (A) (A) (A) (A) (A) (A) (A)
                 (A) (A) (A) (A) (A) (A) (A) (A) (A) (A) (A) (A)
                 (A) (A) (A) (A) (A) (A) (A) (A) (A) (A) (A) (A)
                 (A) (A) (A) (A) (A) (A) (A) (A) (A) (A) (A) (A)
                 (A) (A) (A) (A) (A) (A) (A) (A) (A) (A) (A) (A)
                 (A) (A) (A) (A) (A) (A) (A) (A) (A) (A) (A) (A)
                 (A) (A) (A) (A) (A) (A) (A) (A) (A) (A) (A) (A)
                 (A) (A) (A) (A) (A) (A) (A) (A) (A) (A) (A) (A)
                 (A) (A) (A) (A) (A) (A) (A) (A) (A) (A) (A) (A)
                 (A) (A) (A) (A) (A) (A) (A) (A) (A) (A) (A) (A)
                 (A) (A) (A) (A) (A) (A) (A) (A) (A) (A) (A) (A)
                 (A) (A) (A) (A) (A) (A) (A) (A) (A) (A) (A) (A)
                 (A) (A) (A) (A) (A) (A) (A) (A) (A) (A) (A) (A)
                 (A) (A) (A) (A) (A) (A) (A) (A) (A) (A) (A) (A)
                 (A) (A) (A) (A) (A) (A) (A) (A) (A) (A) (A) (A)
                 (A) (A) (A) (A) (A) (A) (A) (A) (A) (A) (A) (A)
                 (A) (A) (A) (A) (A) (A) (A) (A) (A) (A) (A) (A)
                 (A) (A) (A) (A) (A) (A) (A) (A) (A) (A) (A) (A)
                 (A) (A) (A) (A) (A) (A) (A) (A) (A) (A) (A) (A)
                 (A) (A) (A) (A) (A) (A) (A) (A) (A) (A) (A) (A)
                 (A) (A) (A) (A) (A) (A) (A) (A) (A) (A) (A) (A)
                 (A) (A) (A) (A) (A) (A) (A) (A) (A) (A) (A) (A)
                 (A) (A) (A) (A) (A) (A) (A) (A) (A) (A) (A) (A)
                 (A) (A) (A) (A) (A) (A) (A) (A) (A) (A) (A) (A)
                 (A) (A) (A) (A) (A) (A) (A) (A) (A) (A) (A) (A)
                 (A) (A) (A) (A) (A) (A) (A) (A) (A) (A) (A) (A)
                 (A) (A) (A) (A) (A) (A) (A) (A) (A) (A) (A) (A)
                 (A) (A) (A) (A) (A) (A) (A) (A) (A) (A) (A) (A)
                 (A) (A) (A) (A) (A) (A) (A) (A) (A) (A) (A) (A)
                 (A) (A) (A) (A) (A) (A) (A) (A) (A) (A) (A) (A)
                 (A) (A) (A) (A) (A) (A) (A) (A) (A) (A) (A) (A)
                 (A) (A) (A) (A) (A) (A) (A) (A) (A) (A) (A) (A)
                 (A) (A) (A) (A) (A) (A) (A) (A) (A) (A) (A) (A)
                 (A) (A) (A) (A) (A) (A) (A) (A) (A) (A) (A) (A)
                 (A) (A) (A) (A) (A)
 The electronic state is 1-A.
 Alpha  occ. eigenvalues --  -90.07666 -25.24607 -25.24576 -25.24571 -19.57372
 Alpha  occ. eigenvalues --  -19.57365 -19.50149 -19.48055 -19.47496 -14.68086
 Alpha  occ. eigenvalues --  -14.65890 -10.75139 -10.57085 -10.52635 -10.52250
 Alpha  occ. eigenvalues --  -10.49809 -10.48927 -10.48854 -10.47908 -10.46508
 Alpha  occ. eigenvalues --  -10.46259 -10.45933 -10.45260 -10.43595 -10.43480
 Alpha  occ. eigenvalues --   -8.39047  -6.31203  -6.31191  -6.31081  -1.41380
 Alpha  occ. eigenvalues --   -1.32072  -1.32062  -1.16368  -1.06328  -1.05800
 Alpha  occ. eigenvalues --   -1.04131  -0.95153  -0.94367  -0.91664  -0.87975
 Alpha  occ. eigenvalues --   -0.80192  -0.78842  -0.77028  -0.76062  -0.75647
 Alpha  occ. eigenvalues --   -0.70323  -0.67768  -0.64063  -0.63496  -0.63153
 Alpha  occ. eigenvalues --   -0.62550  -0.61948  -0.59161  -0.57535  -0.56026
 Alpha  occ. eigenvalues --   -0.52729  -0.52187  -0.51318  -0.51292  -0.50179
 Alpha  occ. eigenvalues --   -0.47754  -0.47377  -0.47110  -0.46958  -0.46163
 Alpha  occ. eigenvalues --   -0.45856  -0.45340  -0.44131  -0.43096  -0.42638
 Alpha  occ. eigenvalues --   -0.42201  -0.41722  -0.41660  -0.41065  -0.39694
 Alpha  occ. eigenvalues --   -0.39330  -0.38033  -0.37701  -0.36800  -0.35504
 Alpha  occ. eigenvalues --   -0.34833  -0.34330  -0.33416  -0.33383  -0.33244
 Alpha  occ. eigenvalues --   -0.32342  -0.31648  -0.31115  -0.30918  -0.30742
 Alpha  occ. eigenvalues --   -0.29483  -0.28914  -0.28546  -0.23635  -0.23275
 Alpha  occ. eigenvalues --   -0.21063  -0.20507  -0.20310  -0.19709  -0.17089
 Alpha virt. eigenvalues --    0.07193   0.09782   0.09912   0.10348   0.10743
 Alpha virt. eigenvalues --    0.11185   0.11568   0.11883   0.12083   0.12678
 Alpha virt. eigenvalues --    0.12902   0.13287   0.13696   0.14226   0.14262
 Alpha virt. eigenvalues --    0.14856   0.15112   0.15445   0.15825   0.15932
 Alpha virt. eigenvalues --    0.16454   0.16928   0.17312   0.17628   0.18077
 Alpha virt. eigenvalues --    0.18458   0.18523   0.19238   0.19474   0.19570
 Alpha virt. eigenvalues --    0.19847   0.20081   0.20595   0.20810   0.21007
 Alpha virt. eigenvalues --    0.21326   0.21735   0.22196   0.22458   0.23099
 Alpha virt. eigenvalues --    0.23533   0.23685   0.24242   0.24778   0.25158
 Alpha virt. eigenvalues --    0.25482   0.25688   0.26599   0.27267   0.27475
 Alpha virt. eigenvalues --    0.28070   0.28455   0.28923   0.29211   0.29800
 Alpha virt. eigenvalues --    0.30307   0.30817   0.30941   0.31383   0.31586
 Alpha virt. eigenvalues --    0.31871   0.32368   0.32630   0.32803   0.32922
 Alpha virt. eigenvalues --    0.33465   0.33863   0.34073   0.34267   0.34417
 Alpha virt. eigenvalues --    0.34503   0.34641   0.35152   0.35471   0.35757
 Alpha virt. eigenvalues --    0.35850   0.36384   0.36679   0.37146   0.37472
 Alpha virt. eigenvalues --    0.37907   0.38115   0.38537   0.38810   0.38952
 Alpha virt. eigenvalues --    0.39411   0.39628   0.39688   0.40747   0.41071
 Alpha virt. eigenvalues --    0.41210   0.41449   0.41717   0.41885   0.42256
 Alpha virt. eigenvalues --    0.42384   0.42978   0.43184   0.43435   0.43628
 Alpha virt. eigenvalues --    0.43862   0.43977   0.44637   0.45028   0.45244
 Alpha virt. eigenvalues --    0.45797   0.45985   0.46261   0.46845   0.47243
 Alpha virt. eigenvalues --    0.47412   0.47764   0.48167   0.48391   0.49078
 Alpha virt. eigenvalues --    0.49261   0.49433   0.50263   0.50622   0.50890
 Alpha virt. eigenvalues --    0.51268   0.52414   0.53286   0.54035   0.54774
 Alpha virt. eigenvalues --    0.55473   0.56199   0.56432   0.56782   0.57589
 Alpha virt. eigenvalues --    0.57701   0.58567   0.58969   0.59477   0.59894
 Alpha virt. eigenvalues --    0.62306   0.63229   0.64607   0.65384   0.66919
 Alpha virt. eigenvalues --    0.67431   0.69238   0.70742   0.70999   0.71640
 Alpha virt. eigenvalues --    0.72353   0.74116   0.74630   0.77560   0.80172
 Alpha virt. eigenvalues --    0.80317   0.80605   0.80889   0.83333   0.84006
 Alpha virt. eigenvalues --    0.84718   0.84861   0.85199   0.85651   0.86209
 Alpha virt. eigenvalues --    0.86583   0.87433   0.87715   0.89402   0.90911
 Alpha virt. eigenvalues --    0.91342   0.91471   0.91832   0.92417   0.94219
 Alpha virt. eigenvalues --    0.95208   0.95308   0.96340   0.96952   0.97630
 Alpha virt. eigenvalues --    0.98391   0.99133   0.99674   1.00455   1.00606
 Alpha virt. eigenvalues --    1.03425   1.03845   1.04639   1.06519   1.08356
 Alpha virt. eigenvalues --    1.08372   1.09000   1.09432   1.10728   1.10827
 Alpha virt. eigenvalues --    1.11717   1.12721   1.14114   1.15573   1.16025
 Alpha virt. eigenvalues --    1.17695   1.17929   1.18178   1.19047   1.19632
 Alpha virt. eigenvalues --    1.20319   1.20802   1.21201   1.22584   1.23479
 Alpha virt. eigenvalues --    1.24267   1.26431   1.27419   1.28140   1.28485
 Alpha virt. eigenvalues --    1.28633   1.32601   1.32671   1.33628   1.34486
 Alpha virt. eigenvalues --    1.35662   1.37226   1.37652   1.39220   1.40373
 Alpha virt. eigenvalues --    1.41703   1.42207   1.43138   1.43687   1.44518
 Alpha virt. eigenvalues --    1.45195   1.46158   1.46937   1.47722   1.48605
 Alpha virt. eigenvalues --    1.49179   1.49773   1.50146   1.51043   1.51715
 Alpha virt. eigenvalues --    1.52082   1.52398   1.53484   1.54088   1.54715
 Alpha virt. eigenvalues --    1.55388   1.55487   1.55852   1.56314   1.58700
 Alpha virt. eigenvalues --    1.59092   1.60256   1.60573   1.61274   1.62351
 Alpha virt. eigenvalues --    1.63537   1.63862   1.65241   1.67095   1.67296
 Alpha virt. eigenvalues --    1.68400   1.68952   1.70201   1.71455   1.74262
 Alpha virt. eigenvalues --    1.74891   1.75867   1.76612   1.77087   1.78464
 Alpha virt. eigenvalues --    1.79244   1.80231   1.80966   1.82128   1.82411
 Alpha virt. eigenvalues --    1.84350   1.84652   1.85627   1.86506   1.89607
 Alpha virt. eigenvalues --    1.90151   1.91449   1.91940   1.93842   1.94627
 Alpha virt. eigenvalues --    1.94878   1.95124   1.95624   1.96733   1.97548
 Alpha virt. eigenvalues --    1.98107   1.98687   1.99237   2.00014   2.01078
 Alpha virt. eigenvalues --    2.02087   2.02676   2.04505   2.04621   2.04819
 Alpha virt. eigenvalues --    2.05608   2.06319   2.06534   2.07388   2.07704
 Alpha virt. eigenvalues --    2.07870   2.09078   2.10209   2.12497   2.12893
 Alpha virt. eigenvalues --    2.13332   2.14568   2.15475   2.15872   2.16832
 Alpha virt. eigenvalues --    2.17675   2.18146   2.18219   2.18619   2.19067
 Alpha virt. eigenvalues --    2.19818   2.20910   2.22064   2.22872   2.24068
 Alpha virt. eigenvalues --    2.24264   2.25887   2.26569   2.28141   2.28414
 Alpha virt. eigenvalues --    2.29061   2.31331   2.31839   2.32583   2.33819
 Alpha virt. eigenvalues --    2.34444   2.36581   2.37361   2.37801   2.39162
 Alpha virt. eigenvalues --    2.41300   2.42630   2.42746   2.43707   2.44455
 Alpha virt. eigenvalues --    2.46187   2.46354   2.48815   2.48919   2.49256
 Alpha virt. eigenvalues --    2.49918   2.50442   2.53483   2.54828   2.57066
 Alpha virt. eigenvalues --    2.60221   2.64866   2.64923   2.65922   2.70629
 Alpha virt. eigenvalues --    2.72681   2.74795   2.75288   2.76811   2.78345
 Alpha virt. eigenvalues --    2.81594   2.82005   2.84695   2.87768   2.88831
 Alpha virt. eigenvalues --    2.89005   2.89545   2.90446   2.92079   2.93620
 Alpha virt. eigenvalues --    2.95177   2.96897   3.02221   3.02654   3.06037
 Alpha virt. eigenvalues --    3.06419   3.10414   3.15997   3.23423   3.25608
 Alpha virt. eigenvalues --    3.28275   3.31975   3.33309   3.34607   3.34724
 Alpha virt. eigenvalues --    3.40772   3.46844   3.52669   4.11608   4.35032
 Alpha virt. eigenvalues --    4.36607   4.39106   4.41644   4.42648   4.46718
 Alpha virt. eigenvalues --    4.49122   4.53004   4.54496   4.55972   4.56939
 Alpha virt. eigenvalues --    4.58631   4.60119   4.61881   4.65391   4.69763
 Alpha virt. eigenvalues --    4.73665   4.80921   4.86433   4.88976   5.01131
 Alpha virt. eigenvalues --    5.87966   5.89675   6.52853
          Condensed to atoms (all electrons):
               1          2          3          4          5          6
     1  C    5.963624  -0.339653   0.091892  -0.032707  -0.089711  -0.000892
     2  C   -0.339653   6.601648  -0.723639  -0.061743   0.321887   0.027494
     3  C    0.091892  -0.723639   7.583478   0.313850  -0.921733  -0.138279
     4  N   -0.032707  -0.061743   0.313850   7.833682   0.443414  -0.188333
     5  C   -0.089711   0.321887  -0.921733   0.443414   7.149768   0.552673
     6  O   -0.000892   0.027494  -0.138279  -0.188333   0.552673   8.338303
     7  N   -0.001309   0.029131  -0.120525  -0.339189   0.203415  -0.047333
     8  C   -0.009972   0.026075  -0.384191  -0.158759  -0.127129  -0.417692
     9  C   -0.000287  -0.014705  -0.119228   0.018159  -0.162950   0.449304
    10  C   -0.007940   0.009838  -0.147515  -0.075063  -0.555300  -0.111447
    11  C   -0.001232   0.001069  -0.045888  -0.025856  -0.460408  -0.018212
    12  C   -0.000691  -0.000568  -0.068075   0.007932  -0.942667   0.016985
    13  C    0.001226  -0.005164   0.011121   0.048466   0.034450   0.139538
    14  H    0.465691  -0.139835   0.029358   0.000517  -0.001736   0.000002
    15  H    0.421252  -0.063400  -0.011610   0.000361   0.000333  -0.000021
    16  H    0.417233  -0.062799  -0.008745   0.000142   0.001017  -0.000013
    17  H   -0.037225   0.433917  -0.081694   0.005173  -0.001123  -0.000107
    18  H   -0.033600   0.435377  -0.085667   0.005791  -0.001918  -0.000113
    19  H   -0.015650  -0.052275   0.454141  -0.053132  -0.028832   0.000491
    20  H   -0.009265  -0.049962   0.478216  -0.050529  -0.054309  -0.000183
    21  H    0.005603  -0.002304  -0.007299   0.140780  -0.016581   0.002860
    22  H   -0.000080  -0.001898  -0.003288   0.011323  -0.046851   0.003254
    23  H    0.000024  -0.000001   0.003672   0.001453   0.027954  -0.006758
    24  H   -0.000005   0.000024  -0.000867   0.000928  -0.012496   0.000124
    25  H    0.000000   0.000000   0.000034   0.000019   0.003292  -0.000003
    26  S   -0.000015   0.000019  -0.002484   0.000158  -0.072807   0.000219
    27  O   -0.000000   0.000000  -0.000031  -0.000008  -0.003549   0.000009
    28  O    0.000000  -0.000000   0.000017   0.000011   0.001181  -0.000026
    29  H   -0.000000   0.000001  -0.000113  -0.000004  -0.006041   0.000310
    30  C    0.000001   0.000001   0.000199  -0.000107   0.010176   0.000087
    31  F    0.000000  -0.000000  -0.000000   0.000000  -0.000010  -0.000000
    32  F   -0.000000  -0.000000  -0.000005   0.000000  -0.000808  -0.000000
    33  F   -0.000000  -0.000000  -0.000005   0.000002  -0.001110   0.000003
    34  O    0.010304   0.006942   0.009768  -0.035794  -0.013694  -0.000114
    35  O   -0.001397  -0.007002   0.008311   0.009624  -0.007777   0.000075
    36  C   -0.007226  -0.009147   0.016445  -0.004202  -0.001331  -0.002016
    37  C    0.006844  -0.010145   0.058432  -0.036085  -0.031754  -0.001417
    38  C   -0.001159  -0.000700  -0.005426   0.004170   0.000588   0.000063
    39  H    0.000050   0.000123   0.000150  -0.000197  -0.000246  -0.000000
    40  H    0.000046   0.000087   0.000185  -0.000186  -0.000260  -0.000000
    41  H    0.000001   0.000024  -0.000014  -0.000011   0.000066  -0.000000
    42  H    0.000000   0.000006  -0.000010  -0.000005   0.000024   0.000000
    43  H    0.000001   0.000025  -0.000015  -0.000013   0.000074  -0.000000
               7          8          9         10         11         12
     1  C   -0.001309  -0.009972  -0.000287  -0.007940  -0.001232  -0.000691
     2  C    0.029131   0.026075  -0.014705   0.009838   0.001069  -0.000568
     3  C   -0.120525  -0.384191  -0.119228  -0.147515  -0.045888  -0.068075
     4  N   -0.339189  -0.158759   0.018159  -0.075063  -0.025856   0.007932
     5  C    0.203415  -0.127129  -0.162950  -0.555300  -0.460408  -0.942667
     6  O   -0.047333  -0.417692   0.449304  -0.111447  -0.018212   0.016985
     7  N    7.913211   0.054127  -0.206586  -0.094298   0.068665  -0.000118
     8  C    0.054127  24.067695   2.684397   2.876225  -7.353437  -7.597698
     9  C   -0.206586   2.684397  21.735954  -7.376461  -5.132259  -6.823465
    10  C   -0.094298   2.876225  -7.376461  21.552388   0.025903  -4.731057
    11  C    0.068665  -7.353437  -5.132259   0.025903  23.117478   2.508974
    12  C   -0.000118  -7.597698  -6.823465  -4.731057   2.508974  24.121634
    13  C    0.148825  -6.944011   1.108939  -5.519334  -7.366690   1.250762
    14  H    0.000018  -0.000030  -0.000008  -0.000001  -0.000000  -0.000000
    15  H    0.000030   0.000006  -0.000038   0.000010   0.000000  -0.000000
    16  H    0.000024   0.000028  -0.000029   0.000008   0.000000  -0.000000
    17  H   -0.000142  -0.000700  -0.000171   0.000151   0.000008  -0.000002
    18  H    0.000174  -0.001278  -0.000117   0.000120   0.000008  -0.000005
    19  H   -0.001478   0.003095  -0.002382   0.000569   0.000032   0.000035
    20  H   -0.000629  -0.002937  -0.005348   0.001400   0.000146  -0.000095
    21  H    0.000013   0.004347  -0.008467  -0.001356  -0.000624  -0.000667
    22  H    0.079722  -0.002750   0.071126  -0.052380  -0.000842   0.016669
    23  H   -0.017112  -0.060706   0.281352  -0.011541  -0.016301   0.051786
    24  H   -0.009852  -0.046902  -0.006053   0.265166   0.027690   0.078211
    25  H    0.000241   0.050815  -0.008231  -0.007184   0.300020  -0.038511
    26  S    0.004665  -0.726393  -0.142707   0.157543   0.020756  -0.038236
    27  O   -0.000309  -0.013401   0.142583  -0.173160  -0.295107  -0.332594
    28  O    0.000492   0.012032  -0.169635   0.160866   0.379983  -0.359510
    29  H   -0.000984   0.017161  -0.013477  -0.011156  -0.000359  -0.018295
    30  C   -0.000566   0.238179   0.147824   0.066871   0.287779  -0.799659
    31  F    0.000002  -0.004097  -0.005161  -0.003737  -0.023522   0.085742
    32  F   -0.000037  -0.014151  -0.015973   0.005469  -0.012647   0.007115
    33  F    0.000052  -0.022132  -0.023080  -0.002262   0.022999   0.033510
    34  O    0.005758   0.013939  -0.000371  -0.031039  -0.010767  -0.002005
    35  O    0.016066  -0.300927  -0.007411   0.277054   0.021460  -0.005740
    36  C   -0.013571   0.216320  -0.009979  -0.109406  -0.107923  -0.028807
    37  C   -0.027936  -0.100671  -0.046494   0.062876   0.037127  -0.000388
    38  C    0.004872  -0.047127  -0.002469   0.015478   0.038258   0.004114
    39  H    0.000132  -0.000678  -0.000088   0.000600  -0.000079  -0.000014
    40  H    0.000140  -0.000782  -0.000109   0.000699  -0.000035  -0.000011
    41  H   -0.000093   0.000769   0.000086  -0.000641  -0.000679  -0.000107
    42  H    0.000028   0.000222   0.000010  -0.000181  -0.000164  -0.000008
    43  H   -0.000091   0.000949   0.000115  -0.000596  -0.000967  -0.000142
              13         14         15         16         17         18
     1  C    0.001226   0.465691   0.421252   0.417233  -0.037225  -0.033600
     2  C   -0.005164  -0.139835  -0.063400  -0.062799   0.433917   0.435377
     3  C    0.011121   0.029358  -0.011610  -0.008745  -0.081694  -0.085667
     4  N    0.048466   0.000517   0.000361   0.000142   0.005173   0.005791
     5  C    0.034450  -0.001736   0.000333   0.001017  -0.001123  -0.001918
     6  O    0.139538   0.000002  -0.000021  -0.000013  -0.000107  -0.000113
     7  N    0.148825   0.000018   0.000030   0.000024  -0.000142   0.000174
     8  C   -6.944011  -0.000030   0.000006   0.000028  -0.000700  -0.001278
     9  C    1.108939  -0.000008  -0.000038  -0.000029  -0.000171  -0.000117
    10  C   -5.519334  -0.000001   0.000010   0.000008   0.000151   0.000120
    11  C   -7.366690  -0.000000   0.000000   0.000000   0.000008   0.000008
    12  C    1.250762  -0.000000  -0.000000  -0.000000  -0.000002  -0.000005
    13  C   23.478455  -0.000000  -0.000002  -0.000002  -0.000012  -0.000007
    14  H   -0.000000   0.507667  -0.027503  -0.027466  -0.003023  -0.002999
    15  H   -0.000002  -0.027503   0.512489  -0.033555  -0.004490   0.003808
    16  H   -0.000002  -0.027466  -0.033555   0.512293   0.003819  -0.004466
    17  H   -0.000012  -0.003023  -0.004490   0.003819   0.480425  -0.031576
    18  H   -0.000007  -0.002999   0.003808  -0.004466  -0.031576   0.478769
    19  H   -0.000204  -0.000074  -0.000357   0.002859   0.004214  -0.005431
    20  H   -0.000623  -0.000072   0.002856  -0.000340  -0.005450   0.004175
    21  H   -0.000602   0.000000  -0.000001  -0.000001   0.000803   0.000949
    22  H    0.011196  -0.000000  -0.000000  -0.000000   0.000001   0.000002
    23  H    0.045095   0.000000  -0.000000   0.000000  -0.000000  -0.000000
    24  H   -0.013390   0.000000   0.000000   0.000000  -0.000000  -0.000000
    25  H    0.002683  -0.000000   0.000000   0.000000  -0.000000   0.000000
    26  S   -0.957507  -0.000000  -0.000000  -0.000000  -0.000000  -0.000000
    27  O    0.382128  -0.000000  -0.000000  -0.000000  -0.000000  -0.000000
    28  O   -0.325928  -0.000000  -0.000000   0.000000   0.000000  -0.000000
    29  H    0.312996  -0.000000   0.000000   0.000000   0.000000   0.000000
    30  C    0.624728   0.000000   0.000000  -0.000000   0.000000   0.000000
    31  F   -0.030354   0.000000  -0.000000   0.000000   0.000000   0.000000
    32  F   -0.025667   0.000000  -0.000000   0.000000   0.000000  -0.000000
    33  F   -0.084008   0.000000  -0.000000   0.000000   0.000000  -0.000000
    34  O    0.001727  -0.000037  -0.000018  -0.000014  -0.002556  -0.002848
    35  O    0.016945  -0.000000   0.000000   0.000000  -0.000012  -0.000032
    36  C   -0.004489  -0.000172  -0.000023  -0.000017  -0.000625  -0.000885
    37  C   -0.007000   0.000090  -0.000013  -0.000017  -0.000084  -0.000030
    38  C   -0.002113  -0.000001   0.000000   0.000000  -0.000037  -0.000030
    39  H   -0.000004  -0.000000  -0.000000   0.000000  -0.000000  -0.000000
    40  H   -0.000006  -0.000000   0.000000  -0.000000  -0.000000  -0.000000
    41  H    0.000019   0.000000  -0.000000  -0.000000   0.000000  -0.000000
    42  H    0.000001   0.000000  -0.000000  -0.000000  -0.000000  -0.000000
    43  H    0.000021   0.000000  -0.000000  -0.000000  -0.000000   0.000000
              19         20         21         22         23         24
     1  C   -0.015650  -0.009265   0.005603  -0.000080   0.000024  -0.000005
     2  C   -0.052275  -0.049962  -0.002304  -0.001898  -0.000001   0.000024
     3  C    0.454141   0.478216  -0.007299  -0.003288   0.003672  -0.000867
     4  N   -0.053132  -0.050529   0.140780   0.011323   0.001453   0.000928
     5  C   -0.028832  -0.054309  -0.016581  -0.046851   0.027954  -0.012496
     6  O    0.000491  -0.000183   0.002860   0.003254  -0.006758   0.000124
     7  N   -0.001478  -0.000629   0.000013   0.079722  -0.017112  -0.009852
     8  C    0.003095  -0.002937   0.004347  -0.002750  -0.060706  -0.046902
     9  C   -0.002382  -0.005348  -0.008467   0.071126   0.281352  -0.006053
    10  C    0.000569   0.001400  -0.001356  -0.052380  -0.011541   0.265166
    11  C    0.000032   0.000146  -0.000624  -0.000842  -0.016301   0.027690
    12  C    0.000035  -0.000095  -0.000667   0.016669   0.051786   0.078211
    13  C   -0.000204  -0.000623  -0.000602   0.011196   0.045095  -0.013390
    14  H   -0.000074  -0.000072   0.000000  -0.000000   0.000000   0.000000
    15  H   -0.000357   0.002856  -0.000001  -0.000000  -0.000000   0.000000
    16  H    0.002859  -0.000340  -0.000001  -0.000000   0.000000   0.000000
    17  H    0.004214  -0.005450   0.000803   0.000001  -0.000000  -0.000000
    18  H   -0.005431   0.004175   0.000949   0.000002  -0.000000  -0.000000
    19  H    0.528012  -0.048282   0.001485   0.000008  -0.000001   0.000000
    20  H   -0.048282   0.525261   0.001581   0.000007  -0.000001   0.000000
    21  H    0.001485   0.001581   0.246729   0.009646   0.000001   0.000003
    22  H    0.000008   0.000007   0.009646   0.272171  -0.000188   0.007064
    23  H   -0.000001  -0.000001   0.000001  -0.000188   0.426439  -0.000099
    24  H    0.000000   0.000000   0.000003   0.007064  -0.000099   0.422831
    25  H   -0.000000   0.000000   0.000000  -0.000007   0.000012  -0.003425
    26  S   -0.000001   0.000001  -0.000009   0.000627   0.001016   0.007754
    27  O    0.000000  -0.000000  -0.000000   0.000001   0.000024   0.000063
    28  O    0.000000  -0.000000  -0.000000   0.000001   0.000000   0.000036
    29  H   -0.000000   0.000000  -0.000000   0.000002  -0.003551   0.000013
    30  C   -0.000000   0.000000   0.000000  -0.000023  -0.000253  -0.000613
    31  F    0.000000  -0.000000  -0.000000  -0.000000  -0.000000  -0.000000
    32  F    0.000000  -0.000000  -0.000000   0.000000   0.000001  -0.000019
    33  F   -0.000000   0.000000  -0.000000   0.000000  -0.000023   0.000002
    34  O   -0.000055  -0.000112   0.085160  -0.002480   0.000002  -0.000036
    35  O   -0.000004  -0.000015  -0.000856   0.102788   0.000021  -0.002867
    36  C    0.000699   0.000915  -0.005011  -0.011580   0.000049  -0.000427
    37  C   -0.000001   0.000065   0.021059   0.023776   0.000006   0.002299
    38  C    0.000003   0.000005  -0.003473  -0.002988  -0.000002  -0.000430
    39  H    0.000000  -0.000000  -0.000003  -0.000031   0.000000   0.000000
    40  H   -0.000000   0.000000  -0.000004  -0.000032   0.000000   0.000000
    41  H   -0.000000   0.000000  -0.000000  -0.000016   0.000000   0.000021
    42  H   -0.000000  -0.000000   0.000000  -0.000000  -0.000000  -0.000000
    43  H    0.000000  -0.000000  -0.000000  -0.000016   0.000000   0.000019
              25         26         27         28         29         30
     1  C    0.000000  -0.000015  -0.000000   0.000000  -0.000000   0.000001
     2  C    0.000000   0.000019   0.000000  -0.000000   0.000001   0.000001
     3  C    0.000034  -0.002484  -0.000031   0.000017  -0.000113   0.000199
     4  N    0.000019   0.000158  -0.000008   0.000011  -0.000004  -0.000107
     5  C    0.003292  -0.072807  -0.003549   0.001181  -0.006041   0.010176
     6  O   -0.000003   0.000219   0.000009  -0.000026   0.000310   0.000087
     7  N    0.000241   0.004665  -0.000309   0.000492  -0.000984  -0.000566
     8  C    0.050815  -0.726393  -0.013401   0.012032   0.017161   0.238179
     9  C   -0.008231  -0.142707   0.142583  -0.169635  -0.013477   0.147824
    10  C   -0.007184   0.157543  -0.173160   0.160866  -0.011156   0.066871
    11  C    0.300020   0.020756  -0.295107   0.379983  -0.000359   0.287779
    12  C   -0.038511  -0.038236  -0.332594  -0.359510  -0.018295  -0.799659
    13  C    0.002683  -0.957507   0.382128  -0.325928   0.312996   0.624728
    14  H   -0.000000  -0.000000  -0.000000  -0.000000  -0.000000   0.000000
    15  H    0.000000  -0.000000  -0.000000  -0.000000   0.000000   0.000000
    16  H    0.000000  -0.000000  -0.000000   0.000000   0.000000  -0.000000
    17  H   -0.000000  -0.000000  -0.000000   0.000000   0.000000   0.000000
    18  H    0.000000  -0.000000  -0.000000  -0.000000   0.000000   0.000000
    19  H   -0.000000  -0.000001   0.000000   0.000000  -0.000000  -0.000000
    20  H    0.000000   0.000001  -0.000000  -0.000000   0.000000   0.000000
    21  H    0.000000  -0.000009  -0.000000  -0.000000  -0.000000   0.000000
    22  H   -0.000007   0.000627   0.000001   0.000001   0.000002  -0.000023
    23  H    0.000012   0.001016   0.000024   0.000000  -0.003551  -0.000253
    24  H   -0.003425   0.007754   0.000063   0.000036   0.000013  -0.000613
    25  H    0.456814  -0.004570   0.003062   0.000534  -0.000133   0.001436
    26  S   -0.004570  17.133333   0.443471   0.430913   0.018966  -1.463361
    27  O    0.003062   0.443471   8.614328  -0.174997   0.000715  -0.144409
    28  O    0.000534   0.430913  -0.174997   8.628479   0.004263  -0.124915
    29  H   -0.000133   0.018966   0.000715   0.004263   0.461283  -0.001499
    30  C    0.001436  -1.463361  -0.144409  -0.124915  -0.001499   5.956088
    31  F   -0.000049   0.005408  -0.003113  -0.003989  -0.000046   0.125154
    32  F   -0.000243   0.017254   0.008852   0.016474   0.000011   0.122759
    33  F   -0.000009   0.051144   0.017558   0.006393  -0.000019   0.111220
    34  O    0.000000  -0.000063  -0.000000  -0.000000  -0.000000   0.000003
    35  O    0.000142   0.000446  -0.000018   0.000001  -0.000001  -0.000057
    36  C    0.000057  -0.000563  -0.000035  -0.000010  -0.000002   0.000032
    37  C   -0.000007  -0.000658  -0.000006  -0.000000  -0.000000   0.000063
    38  C   -0.000048   0.000284   0.000006  -0.000001   0.000000  -0.000034
    39  H   -0.000000  -0.000000  -0.000000  -0.000000   0.000000   0.000000
    40  H   -0.000000  -0.000000  -0.000000  -0.000000   0.000000   0.000000
    41  H   -0.000000  -0.000003  -0.000000   0.000000  -0.000000   0.000000
    42  H    0.000000  -0.000000   0.000000  -0.000000   0.000000   0.000000
    43  H    0.000000  -0.000002  -0.000000   0.000000  -0.000000   0.000000
              31         32         33         34         35         36
     1  C    0.000000  -0.000000  -0.000000   0.010304  -0.001397  -0.007226
     2  C   -0.000000  -0.000000  -0.000000   0.006942  -0.007002  -0.009147
     3  C   -0.000000  -0.000005  -0.000005   0.009768   0.008311   0.016445
     4  N    0.000000   0.000000   0.000002  -0.035794   0.009624  -0.004202
     5  C   -0.000010  -0.000808  -0.001110  -0.013694  -0.007777  -0.001331
     6  O   -0.000000  -0.000000   0.000003  -0.000114   0.000075  -0.002016
     7  N    0.000002  -0.000037   0.000052   0.005758   0.016066  -0.013571
     8  C   -0.004097  -0.014151  -0.022132   0.013939  -0.300927   0.216320
     9  C   -0.005161  -0.015973  -0.023080  -0.000371  -0.007411  -0.009979
    10  C   -0.003737   0.005469  -0.002262  -0.031039   0.277054  -0.109406
    11  C   -0.023522  -0.012647   0.022999  -0.010767   0.021460  -0.107923
    12  C    0.085742   0.007115   0.033510  -0.002005  -0.005740  -0.028807
    13  C   -0.030354  -0.025667  -0.084008   0.001727   0.016945  -0.004489
    14  H    0.000000   0.000000   0.000000  -0.000037  -0.000000  -0.000172
    15  H   -0.000000  -0.000000  -0.000000  -0.000018   0.000000  -0.000023
    16  H    0.000000   0.000000   0.000000  -0.000014   0.000000  -0.000017
    17  H    0.000000   0.000000   0.000000  -0.002556  -0.000012  -0.000625
    18  H    0.000000  -0.000000  -0.000000  -0.002848  -0.000032  -0.000885
    19  H    0.000000   0.000000  -0.000000  -0.000055  -0.000004   0.000699
    20  H   -0.000000  -0.000000   0.000000  -0.000112  -0.000015   0.000915
    21  H   -0.000000  -0.000000  -0.000000   0.085160  -0.000856  -0.005011
    22  H   -0.000000   0.000000   0.000000  -0.002480   0.102788  -0.011580
    23  H   -0.000000   0.000001  -0.000023   0.000002   0.000021   0.000049
    24  H   -0.000000  -0.000019   0.000002  -0.000036  -0.002867  -0.000427
    25  H   -0.000049  -0.000243  -0.000009   0.000000   0.000142   0.000057
    26  S    0.005408   0.017254   0.051144  -0.000063   0.000446  -0.000563
    27  O   -0.003113   0.008852   0.017558  -0.000000  -0.000018  -0.000035
    28  O   -0.003989   0.016474   0.006393  -0.000000   0.000001  -0.000010
    29  H   -0.000046   0.000011  -0.000019  -0.000000  -0.000001  -0.000002
    30  C    0.125154   0.122759   0.111220   0.000003  -0.000057   0.000032
    31  F    9.232445  -0.042657  -0.042856   0.000000   0.000000   0.000000
    32  F   -0.042657   9.233269  -0.034684  -0.000000   0.000001  -0.000013
    33  F   -0.042856  -0.034684   9.234857   0.000000  -0.000001  -0.000005
    34  O    0.000000  -0.000000   0.000000   8.513228  -0.188676   0.541618
    35  O    0.000000   0.000001  -0.000001  -0.188676   8.562193   0.231317
    36  C    0.000000  -0.000013  -0.000005   0.541618   0.231317   5.873008
    37  C   -0.000000  -0.000003  -0.000000  -0.299738  -0.096897  -1.156451
    38  C    0.000000   0.000000   0.000000   0.032841   0.057000   0.039847
    39  H    0.000000   0.000000  -0.000000  -0.002531   0.001783  -0.083775
    40  H    0.000000  -0.000000   0.000000  -0.002672   0.002025  -0.083928
    41  H   -0.000000  -0.000000  -0.000000   0.000124  -0.004687  -0.005508
    42  H   -0.000000   0.000000  -0.000000  -0.000188   0.001903   0.036457
    43  H   -0.000000   0.000000  -0.000000   0.000141  -0.004685  -0.005940
              37         38         39         40         41         42
     1  C    0.006844  -0.001159   0.000050   0.000046   0.000001   0.000000
     2  C   -0.010145  -0.000700   0.000123   0.000087   0.000024   0.000006
     3  C    0.058432  -0.005426   0.000150   0.000185  -0.000014  -0.000010
     4  N   -0.036085   0.004170  -0.000197  -0.000186  -0.000011  -0.000005
     5  C   -0.031754   0.000588  -0.000246  -0.000260   0.000066   0.000024
     6  O   -0.001417   0.000063  -0.000000  -0.000000  -0.000000   0.000000
     7  N   -0.027936   0.004872   0.000132   0.000140  -0.000093   0.000028
     8  C   -0.100671  -0.047127  -0.000678  -0.000782   0.000769   0.000222
     9  C   -0.046494  -0.002469  -0.000088  -0.000109   0.000086   0.000010
    10  C    0.062876   0.015478   0.000600   0.000699  -0.000641  -0.000181
    11  C    0.037127   0.038258  -0.000079  -0.000035  -0.000679  -0.000164
    12  C   -0.000388   0.004114  -0.000014  -0.000011  -0.000107  -0.000008
    13  C   -0.007000  -0.002113  -0.000004  -0.000006   0.000019   0.000001
    14  H    0.000090  -0.000001  -0.000000  -0.000000   0.000000   0.000000
    15  H   -0.000013   0.000000  -0.000000   0.000000  -0.000000  -0.000000
    16  H   -0.000017   0.000000   0.000000  -0.000000  -0.000000  -0.000000
    17  H   -0.000084  -0.000037  -0.000000  -0.000000   0.000000  -0.000000
    18  H   -0.000030  -0.000030  -0.000000  -0.000000  -0.000000  -0.000000
    19  H   -0.000001   0.000003   0.000000  -0.000000  -0.000000  -0.000000
    20  H    0.000065   0.000005  -0.000000   0.000000   0.000000  -0.000000
    21  H    0.021059  -0.003473  -0.000003  -0.000004  -0.000000   0.000000
    22  H    0.023776  -0.002988  -0.000031  -0.000032  -0.000016  -0.000000
    23  H    0.000006  -0.000002   0.000000   0.000000   0.000000  -0.000000
    24  H    0.002299  -0.000430   0.000000   0.000000   0.000021  -0.000000
    25  H   -0.000007  -0.000048  -0.000000  -0.000000  -0.000000   0.000000
    26  S   -0.000658   0.000284  -0.000000  -0.000000  -0.000003  -0.000000
    27  O   -0.000006   0.000006  -0.000000  -0.000000  -0.000000   0.000000
    28  O   -0.000000  -0.000001  -0.000000  -0.000000   0.000000  -0.000000
    29  H   -0.000000   0.000000   0.000000   0.000000  -0.000000   0.000000
    30  C    0.000063  -0.000034   0.000000   0.000000   0.000000   0.000000
    31  F   -0.000000   0.000000   0.000000   0.000000  -0.000000  -0.000000
    32  F   -0.000003   0.000000   0.000000  -0.000000  -0.000000   0.000000
    33  F   -0.000000   0.000000  -0.000000   0.000000  -0.000000  -0.000000
    34  O   -0.299738   0.032841  -0.002531  -0.002672   0.000124  -0.000188
    35  O   -0.096897   0.057000   0.001783   0.002025  -0.004687   0.001903
    36  C   -1.156451   0.039847  -0.083775  -0.083928  -0.005508   0.036457
    37  C    7.810062  -0.400022   0.452933   0.453141  -0.058690  -0.083595
    38  C   -0.400022   5.852850  -0.049685  -0.049840   0.421307   0.386344
    39  H    0.452933  -0.049685   0.502706  -0.029877  -0.003902  -0.002058
    40  H    0.453141  -0.049840  -0.029877   0.502564   0.003691  -0.002068
    41  H   -0.058690   0.421307  -0.003902   0.003691   0.488212  -0.029742
    42  H   -0.083595   0.386344  -0.002058  -0.002068  -0.029742   0.547721
    43  H   -0.058052   0.421157   0.003688  -0.003891  -0.027161  -0.029729
              43
     1  C    0.000001
     2  C    0.000025
     3  C   -0.000015
     4  N   -0.000013
     5  C    0.000074
     6  O   -0.000000
     7  N   -0.000091
     8  C    0.000949
     9  C    0.000115
    10  C   -0.000596
    11  C   -0.000967
    12  C   -0.000142
    13  C    0.000021
    14  H    0.000000
    15  H   -0.000000
    16  H   -0.000000
    17  H   -0.000000
    18  H    0.000000
    19  H    0.000000
    20  H   -0.000000
    21  H   -0.000000
    22  H   -0.000016
    23  H    0.000000
    24  H    0.000019
    25  H    0.000000
    26  S   -0.000002
    27  O   -0.000000
    28  O    0.000000
    29  H   -0.000000
    30  C    0.000000
    31  F   -0.000000
    32  F    0.000000
    33  F   -0.000000
    34  O    0.000141
    35  O   -0.004685
    36  C   -0.005940
    37  C   -0.058052
    38  C    0.421157
    39  H    0.003688
    40  H   -0.003891
    41  H   -0.027161
    42  H   -0.029729
    43  H    0.488149
 Mulliken charges:
               1
     1  C   -0.793777
     2  C   -0.348749
     3  C   -0.182928
     4  N   -0.784034
     5  C    0.812820
     6  O   -0.598836
     7  N   -0.647645
     8  C    0.072171
     9  C   -0.336109
    10  C   -0.456181
    11  C    0.015641
    12  C   -0.394334
    13  C   -0.332203
    14  H    0.199614
    15  H    0.199884
    16  H    0.200040
    17  H    0.240517
    18  H    0.241830
    19  H    0.212516
    20  H    0.213525
    21  H    0.526238
    22  H    0.516066
    23  H    0.277629
    24  H    0.285232
    25  H    0.243258
    26  S    1.115401
    27  O   -0.472063
    28  O   -0.482663
    29  H    0.239959
    30  C    0.842897
    31  F   -0.289162
    32  F   -0.264297
    33  F   -0.267546
    34  O   -0.625748
    35  O   -0.680094
    36  C    0.696303
    37  C   -0.512619
    38  C   -0.713605
    39  H    0.211004
    40  H    0.211122
    41  H    0.216933
    42  H    0.175033
    43  H    0.216960
 Sum of Mulliken charges =  -1.00000
 Mulliken charges with hydrogens summed into heavy atoms:
               1
     1  C   -0.194239
     2  C    0.133597
     3  C    0.243113
     4  N   -0.257796
     5  C    0.812820
     6  O   -0.598836
     7  N   -0.131579
     8  C    0.072171
     9  C   -0.058480
    10  C   -0.170949
    11  C    0.258899
    12  C   -0.394334
    13  C   -0.092243
    26  S    1.115401
    27  O   -0.472063
    28  O   -0.482663
    30  C    0.842897
    31  F   -0.289162
    32  F   -0.264297
    33  F   -0.267546
    34  O   -0.625748
    35  O   -0.680094
    36  C    0.696303
    37  C   -0.090492
    38  C   -0.104679
         Mulliken charges condensed to fragments:
      1     -0.195290
      2     -0.804710
 Electronic spatial extent (au):  <R**2>=          15306.5149
 Charge=             -1.0000 electrons
 Dipole moment (field-independent basis, Debye):
    X=              1.5267    Y=             -0.5017    Z=              1.9358  Tot=              2.5159
 Quadrupole moment (field-independent basis, Debye-Ang):
   XX=           -244.0833   YY=           -182.6780   ZZ=           -163.4844
   XY=              6.2107   XZ=             10.7088   YZ=             -0.5825
 Traceless Quadrupole moment (field-independent basis, Debye-Ang):
   XX=            -47.3348   YY=             14.0706   ZZ=             33.2642
   XY=              6.2107   XZ=             10.7088   YZ=             -0.5825
 Octapole moment (field-independent basis, Debye-Ang**2):
  XXX=             32.9273  YYY=              2.8096  ZZZ=             31.3998  XYY=             75.6445
  XXY=            -33.8849  XXZ=             55.7222  XZZ=              8.9700  YZZ=              1.0199
  YYZ=             14.3353  XYZ=              1.7463
 Hexadecapole moment (field-independent basis, Debye-Ang**3):
 XXXX=         -17721.6291 YYYY=          -4137.6207 ZZZZ=           -662.2865 XXXY=            141.7269
 XXXZ=            442.7004 YYYX=            -39.1243 YYYZ=             -0.3700 ZZZX=            140.8239
 ZZZY=             -2.6572 XXYY=          -3492.7921 XXZZ=          -2768.0719 YYZZ=           -754.4127
 XXYZ=             -8.1487 YYXZ=             64.4324 ZZXY=             -1.8072
 N-N= 2.440711628561D+03 E-N=-8.961213454414D+03  KE= 1.715134622856D+03
 CPIOFr:  IOpCl= 0 IRwI=-1 IRwCP=  731 ICalc= -1 LCPTot=      412865 Len1MO=     1069949 IndFrg=      412865
 CPIOFr:  IOpCl= 0 IRwI=-1 IRwCP=  731 ICalc=  0 LCPTot=      412865 Len1MO=     1069949 IndFrg=     1482814
 Counterpoise: doing DCBS calculation for fragment   1 NewBq=T
 Basis read from rwf:  (6D, 7F)
 There are   515 symmetry adapted cartesian basis functions of A   symmetry.
 There are   515 symmetry adapted basis functions of A   symmetry.
   515 basis functions,   896 primitive gaussians,   515 cartesian basis functions
    80 alpha electrons       80 beta electrons
       nuclear repulsion energy      1743.9347450697 Hartrees.
 NAtoms=   43 NActive=   43 NUniq=   43 SFac= 1.00D+00 NAtFMM=   60 NAOKFM=F Big=F
 Integral buffers will be    131072 words long.
 Raffenetti 2 integral format.
 Two-electron integral symmetry is turned on.
 One-electron integrals computed using PRISM.
 NBasis=   515 RedAO= T EigKep=  1.49D-06  NBF=   515
 NBsUse=   513 1.00D-06 EigRej=  6.60D-07 NBFU=   513
 ExpMin= 4.05D-02 ExpMax= 2.19D+04 ExpMxC= 3.30D+03 IAcc=3 IRadAn=         5 AccDes= 0.00D+00
 Harris functional with IExCor= 1009 and IRadAn=       5 diagonalized for initial guess.
 HarFok:  IExCor= 1009 AccDes= 0.00D+00 IRadAn=         5 IDoV= 1 UseB2=F ITyADJ=14
 ICtDFT=  3500011 ScaDFX=  1.000000  1.000000  1.000000  1.000000
 FoFCou: FMM=F IPFlag=           0 FMFlag=      100000 FMFlg1=           0
         NFxFlg=           0 DoJE=T BraDBF=F KetDBF=T FulRan=T
         wScrn=  0.000000 ICntrl=     500 IOpCl=  0 I1Cent=   200000004 NGrid=           0
         NMat0=    1 NMatS0=      1 NMatT0=    0 NMatD0=    1 NMtDS0=    0 NMtDT0=    0
 Petite list used in FoFCou.
 Requested convergence on RMS density matrix=1.00D-08 within 128 cycles.
 Requested convergence on MAX density matrix=1.00D-06.
 Requested convergence on             energy=1.00D-06.
 No special actions if energy rises.
 SCF Done:  E(RM062X) =  -1459.43202926     A.U. after   16 cycles
            NFock= 16  Conv=0.23D-08     -V/T= 2.0069

 **********************************************************************

            Population analysis using the SCF density.

 **********************************************************************

 Orbital symmetries:
       Occupied  (A) (A) (A) (A) (A) (A) (A) (A) (A) (A) (A) (A)
                 (A) (A) (A) (A) (A) (A) (A) (A) (A) (A) (A) (A)
                 (A) (A) (A) (A) (A) (A) (A) (A) (A) (A) (A) (A)
                 (A) (A) (A) (A) (A) (A) (A) (A) (A) (A) (A) (A)
                 (A) (A) (A) (A) (A) (A) (A) (A) (A) (A) (A) (A)
                 (A) (A) (A) (A) (A) (A) (A) (A) (A) (A) (A) (A)
                 (A) (A) (A) (A) (A) (A) (A) (A)
       Virtual   (A) (A) (A) (A) (A) (A) (A) (A) (A) (A) (A) (A)
                 (A) (A) (A) (A) (A) (A) (A) (A) (A) (A) (A) (A)
                 (A) (A) (A) (A) (A) (A) (A) (A) (A) (A) (A) (A)
                 (A) (A) (A) (A) (A) (A) (A) (A) (A) (A) (A) (A)
                 (A) (A) (A) (A) (A) (A) (A) (A) (A) (A) (A) (A)
                 (A) (A) (A) (A) (A) (A) (A) (A) (A) (A) (A) (A)
                 (A) (A) (A) (A) (A) (A) (A) (A) (A) (A) (A) (A)
                 (A) (A) (A) (A) (A) (A) (A) (A) (A) (A) (A) (A)
                 (A) (A) (A) (A) (A) (A) (A) (A) (A) (A) (A) (A)
                 (A) (A) (A) (A) (A) (A) (A) (A) (A) (A) (A) (A)
                 (A) (A) (A) (A) (A) (A) (A) (A) (A) (A) (A) (A)
                 (A) (A) (A) (A) (A) (A) (A) (A) (A) (A) (A) (A)
                 (A) (A) (A) (A) (A) (A) (A) (A) (A) (A) (A) (A)
                 (A) (A) (A) (A) (A) (A) (A) (A) (A) (A) (A) (A)
                 (A) (A) (A) (A) (A) (A) (A) (A) (A) (A) (A) (A)
                 (A) (A) (A) (A) (A) (A) (A) (A) (A) (A) (A) (A)
                 (A) (A) (A) (A) (A) (A) (A) (A) (A) (A) (A) (A)
                 (A) (A) (A) (A) (A) (A) (A) (A) (A) (A) (A) (A)
                 (A) (A) (A) (A) (A) (A) (A) (A) (A) (A) (A) (A)
                 (A) (A) (A) (A) (A) (A) (A) (A) (A) (A) (A) (A)
                 (A) (A) (A) (A) (A) (A) (A) (A) (A) (A) (A) (A)
                 (A) (A) (A) (A) (A) (A) (A) (A) (A) (A) (A) (A)
                 (A) (A) (A) (A) (A) (A) (A) (A) (A) (A) (A) (A)
                 (A) (A) (A) (A) (A) (A) (A) (A) (A) (A) (A) (A)
                 (A) (A) (A) (A) (A) (A) (A) (A) (A) (A) (A) (A)
                 (A) (A) (A) (A) (A) (A) (A) (A) (A) (A) (A) (A)
                 (A) (A) (A) (A) (A) (A) (A) (A) (A) (A) (A) (A)
                 (A) (A) (A) (A) (A) (A) (A) (A) (A) (A) (A) (A)
                 (A) (A) (A) (A) (A) (A) (A) (A) (A) (A) (A) (A)
                 (A) (A) (A) (A) (A) (A) (A) (A) (A) (A) (A) (A)
                 (A) (A) (A) (A) (A) (A) (A) (A) (A) (A) (A) (A)
                 (A) (A) (A) (A) (A) (A) (A) (A) (A) (A) (A) (A)
                 (A) (A) (A) (A) (A) (A) (A) (A) (A) (A) (A) (A)
                 (A) (A) (A) (A) (A) (A) (A) (A) (A) (A) (A) (A)
                 (A) (A) (A) (A) (A) (A) (A) (A) (A) (A) (A) (A)
                 (A) (A) (A) (A) (A) (A) (A) (A) (A) (A) (A) (A)
                 (A)
 The electronic state is 1-A.
 Alpha  occ. eigenvalues --  -90.16416 -25.32485 -25.32389 -25.32075 -19.65883
 Alpha  occ. eigenvalues --  -19.65845 -19.63685 -14.83948 -14.81958 -10.83270
 Alpha  occ. eigenvalues --  -10.71373 -10.64449 -10.60442 -10.60434 -10.59955
 Alpha  occ. eigenvalues --  -10.59554 -10.59016 -10.57713 -10.57585 -10.56015
 Alpha  occ. eigenvalues --   -8.47817  -6.39956  -6.39950  -6.39880  -1.49121
 Alpha  occ. eigenvalues --   -1.39924  -1.39633  -1.24896  -1.20138  -1.14247
 Alpha  occ. eigenvalues --   -1.09365  -1.06263  -0.99340  -0.91674  -0.89541
 Alpha  occ. eigenvalues --   -0.88326  -0.85682  -0.81496  -0.77983  -0.74886
 Alpha  occ. eigenvalues --   -0.73640  -0.71733  -0.71289  -0.71184  -0.69832
 Alpha  occ. eigenvalues --   -0.67382  -0.65864  -0.64357  -0.60826  -0.59118
 Alpha  occ. eigenvalues --   -0.58689  -0.58492  -0.56758  -0.56341  -0.55346
 Alpha  occ. eigenvalues --   -0.55179  -0.55143  -0.54719  -0.54233  -0.53488
 Alpha  occ. eigenvalues --   -0.52991  -0.52790  -0.51574  -0.49720  -0.49559
 Alpha  occ. eigenvalues --   -0.49505  -0.46946  -0.45234  -0.44086  -0.42928
 Alpha  occ. eigenvalues --   -0.42668  -0.42022  -0.41679  -0.40898  -0.39544
 Alpha  occ. eigenvalues --   -0.37711  -0.36608  -0.34865  -0.34255  -0.30095
 Alpha virt. eigenvalues --   -0.03464  -0.03259  -0.00859   0.00470   0.01486
 Alpha virt. eigenvalues --    0.01559   0.01834   0.02730   0.03643   0.03727
 Alpha virt. eigenvalues --    0.03990   0.04498   0.04594   0.04865   0.05170
 Alpha virt. eigenvalues --    0.06010   0.06169   0.06583   0.06894   0.07334
 Alpha virt. eigenvalues --    0.07525   0.07793   0.08175   0.08460   0.08749
 Alpha virt. eigenvalues --    0.08809   0.09448   0.09811   0.10044   0.10394
 Alpha virt. eigenvalues --    0.10650   0.11127   0.11337   0.11553   0.11733
 Alpha virt. eigenvalues --    0.12143   0.12344   0.12923   0.13315   0.13501
 Alpha virt. eigenvalues --    0.14175   0.14548   0.14801   0.15017   0.15432
 Alpha virt. eigenvalues --    0.15489   0.15890   0.16378   0.17067   0.17647
 Alpha virt. eigenvalues --    0.17813   0.18435   0.18749   0.18861   0.19230
 Alpha virt. eigenvalues --    0.19631   0.20088   0.20287   0.20455   0.20909
 Alpha virt. eigenvalues --    0.21365   0.21783   0.21885   0.22105   0.22406
 Alpha virt. eigenvalues --    0.23088   0.23246   0.23364   0.23875   0.24179
 Alpha virt. eigenvalues --    0.24884   0.25077   0.25351   0.25682   0.25746
 Alpha virt. eigenvalues --    0.26051   0.26197   0.26702   0.26950   0.27402
 Alpha virt. eigenvalues --    0.27700   0.27939   0.28261   0.28296   0.28773
 Alpha virt. eigenvalues --    0.29197   0.29550   0.30331   0.30818   0.31015
 Alpha virt. eigenvalues --    0.31442   0.31643   0.32201   0.32447   0.32660
 Alpha virt. eigenvalues --    0.32929   0.33655   0.33937   0.34064   0.34346
 Alpha virt. eigenvalues --    0.34708   0.35131   0.35561   0.35692   0.36331
 Alpha virt. eigenvalues --    0.37228   0.37597   0.37739   0.38064   0.38377
 Alpha virt. eigenvalues --    0.38818   0.39399   0.39598   0.39820   0.40156
 Alpha virt. eigenvalues --    0.40875   0.40986   0.41548   0.42456   0.42961
 Alpha virt. eigenvalues --    0.43074   0.44163   0.44706   0.44857   0.45462
 Alpha virt. eigenvalues --    0.46293   0.47279   0.47915   0.48207   0.48693
 Alpha virt. eigenvalues --    0.49509   0.49952   0.50594   0.51115   0.52186
 Alpha virt. eigenvalues --    0.53777   0.54500   0.54739   0.56542   0.58361
 Alpha virt. eigenvalues --    0.58894   0.59344   0.59843   0.60969   0.61990
 Alpha virt. eigenvalues --    0.62657   0.64307   0.65715   0.66897   0.67199
 Alpha virt. eigenvalues --    0.68095   0.69905   0.70099   0.70969   0.72592
 Alpha virt. eigenvalues --    0.72763   0.73009   0.73836   0.74252   0.74623
 Alpha virt. eigenvalues --    0.74886   0.75572   0.75902   0.76695   0.78151
 Alpha virt. eigenvalues --    0.78295   0.78597   0.79599   0.80070   0.80633
 Alpha virt. eigenvalues --    0.82230   0.82857   0.83833   0.85118   0.85418
 Alpha virt. eigenvalues --    0.85994   0.86256   0.87662   0.88015   0.89239
 Alpha virt. eigenvalues --    0.90050   0.91154   0.91345   0.92100   0.92584
 Alpha virt. eigenvalues --    0.93785   0.94232   0.96213   0.96267   0.99022
 Alpha virt. eigenvalues --    0.99362   1.00524   1.00859   1.01664   1.02157
 Alpha virt. eigenvalues --    1.02327   1.03852   1.04236   1.04486   1.07982
 Alpha virt. eigenvalues --    1.08324   1.08498   1.10333   1.10832   1.12400
 Alpha virt. eigenvalues --    1.12848   1.14695   1.15078   1.16428   1.18117
 Alpha virt. eigenvalues --    1.19003   1.20174   1.22254   1.23097   1.23633
 Alpha virt. eigenvalues --    1.25536   1.26131   1.28165   1.29333   1.29856
 Alpha virt. eigenvalues --    1.31655   1.32502   1.33620   1.33922   1.34791
 Alpha virt. eigenvalues --    1.35707   1.36393   1.37180   1.37482   1.39011
 Alpha virt. eigenvalues --    1.39864   1.40591   1.42377   1.42813   1.43125
 Alpha virt. eigenvalues --    1.44212   1.45193   1.46065   1.46495   1.46738
 Alpha virt. eigenvalues --    1.48765   1.48929   1.50285   1.52188   1.52556
 Alpha virt. eigenvalues --    1.53483   1.54786   1.55653   1.57382   1.58320
 Alpha virt. eigenvalues --    1.62108   1.67019   1.67386   1.68752   1.69257
 Alpha virt. eigenvalues --    1.69815   1.71560   1.72599   1.73273   1.74502
 Alpha virt. eigenvalues --    1.74704   1.76412   1.77114   1.79078   1.81479
 Alpha virt. eigenvalues --    1.82653   1.84262   1.84461   1.85296   1.86170
 Alpha virt. eigenvalues --    1.86702   1.87032   1.87640   1.87879   1.88781
 Alpha virt. eigenvalues --    1.89559   1.91007   1.91610   1.92071   1.93645
 Alpha virt. eigenvalues --    1.94462   1.95308   1.96503   1.96816   1.97538
 Alpha virt. eigenvalues --    1.98164   1.99207   2.00468   2.01404   2.02067
 Alpha virt. eigenvalues --    2.03042   2.03713   2.03961   2.05255   2.06058
 Alpha virt. eigenvalues --    2.09216   2.09551   2.10135   2.10458   2.10691
 Alpha virt. eigenvalues --    2.11674   2.12672   2.13389   2.13863   2.14843
 Alpha virt. eigenvalues --    2.17224   2.17873   2.18057   2.18378   2.19051
 Alpha virt. eigenvalues --    2.19192   2.20254   2.21207   2.22288   2.23407
 Alpha virt. eigenvalues --    2.24023   2.24922   2.26142   2.27121   2.29805
 Alpha virt. eigenvalues --    2.31634   2.33870   2.34837   2.35501   2.36395
[...]
    10  C    0.015019  -0.236726   0.042317   0.211180  -0.013940   0.237515
    11  C    0.264467   1.121831  -0.737842   0.215718  -0.003115  -0.022665
    12  C    0.021615  -0.223840  -0.199292  -0.322671  -0.008486  -0.747983
    13  C   -0.003361  -1.250184   0.515300  -0.357370   0.371825   0.684937
    14  H   -0.000000  -0.000000  -0.000000  -0.000000  -0.000000   0.000000
    15  H    0.000000  -0.000000  -0.000000  -0.000000   0.000000  -0.000000
    16  H    0.000000   0.000000  -0.000000   0.000000   0.000000  -0.000000
    17  H    0.000000  -0.000000  -0.000000   0.000000   0.000000  -0.000000
    18  H   -0.000000  -0.000000  -0.000000  -0.000000  -0.000000   0.000000
    19  H   -0.000000  -0.000000   0.000000   0.000000  -0.000000  -0.000000
    20  H    0.000000  -0.000000  -0.000000  -0.000000  -0.000000   0.000000
    21  H   -0.000000  -0.000009  -0.000000  -0.000000  -0.000000  -0.000000
    22  H   -0.000017   0.001028   0.000001  -0.000000   0.000003  -0.000060
    23  H    0.000011   0.001301   0.000023  -0.000003  -0.003274  -0.000239
    24  H   -0.003701   0.010047   0.000047   0.000037   0.000013  -0.000772
    25  H    0.435128  -0.000780   0.004396   0.000755  -0.000118   0.001884
    26  S   -0.000780  17.114465   0.414117   0.419911   0.017926  -1.427116
    27  O    0.004396   0.414117   8.601734  -0.165469   0.000694  -0.134458
    28  O    0.000755   0.419911  -0.165469   8.597829   0.004587  -0.120576
    29  H   -0.000118   0.017926   0.000694   0.004587   0.431289  -0.001159
    30  C    0.001884  -1.427116  -0.134458  -0.120576  -0.001159   5.897781
    31  F   -0.000049  -0.014838  -0.003180  -0.004476  -0.000048   0.152091
    32  F   -0.000052   0.022562   0.008718   0.018679   0.000010   0.111719
    33  F    0.000010   0.056146   0.018889   0.008532  -0.000061   0.100015
              31         32         33
     1  C    0.000000  -0.000000  -0.000000
     2  C   -0.000000  -0.000000  -0.000000
     3  C    0.000000  -0.000007  -0.000009
     4  N    0.000000   0.000001   0.000002
     5  C    0.000020  -0.001143  -0.001542
     6  O   -0.000000   0.000000   0.000005
     7  N    0.000002  -0.000021   0.000016
     8  C   -0.001132  -0.040025  -0.028054
     9  C   -0.005628   0.010393  -0.011219
    10  C   -0.007011   0.061506   0.028559
    11  C   -0.004456  -0.154800  -0.037899
    12  C    0.079687   0.076000   0.034748
    13  C   -0.032994  -0.006936  -0.062001
    14  H    0.000000   0.000000   0.000000
    15  H   -0.000000  -0.000000  -0.000000
    16  H    0.000000   0.000000   0.000000
    17  H    0.000000   0.000000   0.000000
    18  H    0.000000  -0.000000  -0.000000
    19  H    0.000000   0.000000   0.000000
    20  H   -0.000000   0.000000  -0.000000
    21  H   -0.000000  -0.000000  -0.000000
    22  H   -0.000000   0.000000  -0.000000
    23  H   -0.000000   0.000001  -0.000024
    24  H   -0.000000  -0.000029   0.000001
    25  H   -0.000049  -0.000052   0.000010
    26  S   -0.014838   0.022562   0.056146
    27  O   -0.003180   0.008718   0.018889
    28  O   -0.004476   0.018679   0.008532
    29  H   -0.000048   0.000010  -0.000061
    30  C    0.152091   0.111719   0.100015
    31  F    9.199734  -0.041949  -0.043172
    32  F   -0.041949   9.230591  -0.032964
    33  F   -0.043172  -0.032964   9.228728
 Mulliken charges:
               1
     1  C   -0.717940
     2  C   -0.376931
     3  C   -0.127956
     4  N   -0.685368
     5  C    0.830725
     6  O   -0.570541
     7  N   -0.589635
     8  C    0.184717
     9  C    0.202332
    10  C   -1.313460
    11  C   -0.028984
    12  C   -0.667020
    13  C    0.222141
    14  H    0.217418
    15  H    0.217428
    16  H    0.217551
    17  H    0.220441
    18  H    0.219984
    19  H    0.235217
    20  H    0.236150
    21  H    0.405748
    22  H    0.402686
    23  H    0.286325
    24  H    0.201066
    25  H    0.262793
    26  S    1.049811
    27  O   -0.451779
    28  O   -0.434107
    29  H    0.266049
    30  C    0.878698
    31  F   -0.272601
    32  F   -0.262253
    33  F   -0.258704
    34  O    0.000000
    35  O    0.000000
    36  C    0.000000
    37  C    0.000000
    38  C    0.000000
    39  H    0.000000
    40  H    0.000000
    41  H    0.000000
    42  H    0.000000
    43  H    0.000000
 Sum of Mulliken charges =  -0.00000
 Mulliken charges with hydrogens summed into heavy atoms:
               1
     1  C   -0.065543
     2  C    0.063494
     3  C    0.343411
     4  N   -0.279620
     5  C    0.830725
     6  O   -0.570541
     7  N   -0.186949
     8  C    0.184717
     9  C    0.488656
    10  C   -1.112394
    11  C    0.233809
    12  C   -0.667020
    13  C    0.488190
    26  S    1.049811
    27  O   -0.451779
    28  O   -0.434107
    30  C    0.878698
    31  F   -0.272601
    32  F   -0.262253
    33  F   -0.258704
    34  O    0.000000
    35  O    0.000000
    36  C    0.000000
    37  C    0.000000
    38  C    0.000000
         Mulliken charges condensed to fragments:
      1     -0.000000
      2      0.000000
 Electronic spatial extent (au):  <R**2>=          11748.2683
 Charge=             -0.0000 electrons
 Dipole moment (field-independent basis, Debye):
    X=            -10.5002    Y=              2.4279    Z=              1.7242  Tot=             10.9143
 Quadrupole moment (field-independent basis, Debye-Ang):
   XX=           -133.3372   YY=           -129.0766   ZZ=           -130.0028
   XY=             -1.9080   XZ=              7.8307   YZ=             -0.6151
 Traceless Quadrupole moment (field-independent basis, Debye-Ang):
   XX=             -2.5317   YY=              1.7289   ZZ=              0.8028
   XY=             -1.9080   XZ=              7.8307   YZ=             -0.6151
 Octapole moment (field-independent basis, Debye-Ang**2):
  XXX=           -584.3715  YYY=            297.8522  ZZZ=             34.9824  XYY=            -96.1945
  XXY=             63.2970  XXZ=             66.5105  XZZ=           -101.7763  YZZ=             91.7813
  YYZ=             14.3999  XYZ=              3.5768
 Hexadecapole moment (field-independent basis, Debye-Ang**3):
 XXXX=         -12693.8541 YYYY=          -1708.2982 ZZZZ=           -603.9445 XXXY=           -771.1352
 XXXZ=            325.9081 YYYX=          -1033.7573 YYYZ=              7.3820 ZZZX=            113.1631
 ZZZY=              8.7362 XXYY=          -2373.3648 XXZZ=          -2266.7445 YYZZ=           -384.7801
 XXYZ=            -11.4658 YYXZ=             44.4178 ZZXY=           -324.7727
 N-N= 1.743934745070D+03 E-N=-6.917967783790D+03  KE= 1.449425819630D+03
 CPIOFr:  IOpCl= 0 IRwI=-1 IRwCP=  731 ICalc=  3 LCPTot=      412865 Len1MO=     1069949 IndFrg=     4692661
 Counterpoise: doing MCBS calculation for fragment   2
 Basis read from rwf:  (6D, 7F)
 There are   105 symmetry adapted cartesian basis functions of A   symmetry.
 There are   105 symmetry adapted basis functions of A   symmetry.
   105 basis functions,   180 primitive gaussians,   105 cartesian basis functions
    20 alpha electrons       20 beta electrons
       nuclear repulsion energy       168.5535285626 Hartrees.
 NAtoms=   43 NActive=   10 NUniq=   10 SFac= 1.00D+00 NAtFMM=   60 NAOKFM=F Big=F
 Integral buffers will be    131072 words long.
 Raffenetti 2 integral format.
 Two-electron integral symmetry is turned on.
 One-electron integrals computed using PRISM.
 NBasis=   105 RedAO= T EigKep=  1.22D-04  NBF=   105
 NBsUse=   105 1.00D-06 EigRej= -1.00D+00 NBFU=   105
 ExpMin= 4.38D-02 ExpMax= 5.48D+03 ExpMxC= 8.25D+02 IAcc=3 IRadAn=         5 AccDes= 0.00D+00
 Harris functional with IExCor= 1009 and IRadAn=       5 diagonalized for initial guess.
 HarFok:  IExCor= 1009 AccDes= 0.00D+00 IRadAn=         5 IDoV= 1 UseB2=F ITyADJ=14
 ICtDFT=  3500011 ScaDFX=  1.000000  1.000000  1.000000  1.000000
 FoFCou: FMM=F IPFlag=           0 FMFlag=      100000 FMFlg1=           0
         NFxFlg=           0 DoJE=T BraDBF=F KetDBF=T FulRan=T
         wScrn=  0.000000 ICntrl=     500 IOpCl=  0 I1Cent=   200000004 NGrid=           0
         NMat0=    1 NMatS0=      1 NMatT0=    0 NMatD0=    1 NMtDS0=    0 NMtDT0=    0
 Petite list used in FoFCou.
 Keep R1 ints in memory in canonical form, NReq=16474728.
 Requested convergence on RMS density matrix=1.00D-08 within 128 cycles.
 Requested convergence on MAX density matrix=1.00D-06.
 Requested convergence on             energy=1.00D-06.
 No special actions if energy rises.
 SCF Done:  E(RM062X) =  -267.728413874     A.U. after   14 cycles
            NFock= 14  Conv=0.41D-08     -V/T= 2.0084

 **********************************************************************

            Population analysis using the SCF density.

 **********************************************************************

 Orbital symmetries:
       Occupied  (A) (A) (A) (A) (A) (A) (A) (A) (A) (A) (A) (A)
                 (A) (A) (A) (A) (A) (A) (A) (A)
       Virtual   (A) (A) (A) (A) (A) (A) (A) (A) (A) (A) (A) (A)
                 (A) (A) (A) (A) (A) (A) (A) (A) (A) (A) (A) (A)
                 (A) (A) (A) (A) (A) (A) (A) (A) (A) (A) (A) (A)
                 (A) (A) (A) (A) (A) (A) (A) (A) (A) (A) (A) (A)
                 (A) (A) (A) (A) (A) (A) (A) (A) (A) (A) (A) (A)
                 (A) (A) (A) (A) (A) (A) (A) (A) (A) (A) (A) (A)
                 (A) (A) (A) (A) (A) (A) (A) (A) (A) (A) (A) (A)
                 (A)
 The electronic state is 1-A.
 Alpha  occ. eigenvalues --  -19.38288 -19.37983 -10.43609 -10.38691 -10.37539
 Alpha  occ. eigenvalues --   -0.94214  -0.84490  -0.69932  -0.56040  -0.39494
 Alpha  occ. eigenvalues --   -0.36289  -0.33510  -0.30144  -0.27622  -0.27395
 Alpha  occ. eigenvalues --   -0.25009  -0.22632  -0.10870  -0.10852  -0.10156
 Alpha virt. eigenvalues --    0.14614   0.16480   0.18634   0.19570   0.21555
 Alpha virt. eigenvalues --    0.21834   0.22416   0.22878   0.23466   0.25912
 Alpha virt. eigenvalues --    0.28388   0.29723   0.30030   0.38010   0.38905
 Alpha virt. eigenvalues --    0.42279   0.42503   0.43633   0.45464   0.46257
 Alpha virt. eigenvalues --    0.46739   0.48001   0.49574   0.49792   0.50773
 Alpha virt. eigenvalues --    0.55114   0.56106   0.57231   0.71691   0.75170
 Alpha virt. eigenvalues --    0.84448   0.86639   0.89660   0.92073   0.94810
 Alpha virt. eigenvalues --    0.99465   1.01991   1.08477   1.10010   1.14575
 Alpha virt. eigenvalues --    1.20099   1.21325   1.31082   1.32755   1.33997
 Alpha virt. eigenvalues --    1.34579   1.49208   1.54784   1.57818   1.59199
 Alpha virt. eigenvalues --    1.61030   1.63155   1.63279   1.74402   1.78276
 Alpha virt. eigenvalues --    1.80820   1.86872   2.02651   2.02756   2.08633
 Alpha virt. eigenvalues --    2.10140   2.12111   2.14367   2.16393   2.22711
 Alpha virt. eigenvalues --    2.26466   2.28247   2.29467   2.45074   2.52341
 Alpha virt. eigenvalues --    2.54106   2.54339   2.73578   2.74148   2.78527
 Alpha virt. eigenvalues --    2.97628   3.13209   3.27201   3.32731   3.42408
 Alpha virt. eigenvalues --    4.36343   4.41526   4.58210   4.66887   4.82544
          Condensed to atoms (all electrons):
               1          2          3          4          5          6
     1  O    8.618016  -0.170324   0.530210  -0.393195   0.079273  -0.002779
     2  O   -0.170324   8.598097   0.462988  -0.323860   0.096378   0.001252
     3  C    0.530210   0.462988   4.839727  -0.365199   0.050742  -0.015274
     4  C   -0.393195  -0.323860  -0.365199   7.537510  -0.640176   0.388402
     5  C    0.079273   0.096378   0.050742  -0.640176   6.024119  -0.055697
     6  H   -0.002779   0.001252  -0.015274   0.388402  -0.055697   0.530450
     7  H   -0.002828   0.001360  -0.015360   0.388769  -0.056016  -0.032672
     8  H   -0.000118  -0.006656  -0.002732  -0.048083   0.410987  -0.004340
     9  H   -0.000307   0.002891   0.012534  -0.060570   0.378637  -0.002032
    10  H   -0.000100  -0.006636  -0.003050  -0.047836   0.410969   0.003857
               7          8          9         10
     1  O   -0.002828  -0.000118  -0.000307  -0.000100
     2  O    0.001360  -0.006656   0.002891  -0.006636
     3  C   -0.015360  -0.002732   0.012534  -0.003050
     4  C    0.388769  -0.048083  -0.060570  -0.047836
     5  C   -0.056016   0.410987   0.378637   0.410969
     6  H   -0.032672  -0.004340  -0.002032   0.003857
     7  H    0.530329   0.003858  -0.002047  -0.004324
     8  H    0.003858   0.498599  -0.033947  -0.025512
     9  H   -0.002047  -0.033947   0.589221  -0.033980
    10  H   -0.004324  -0.025512  -0.033980   0.499019
 Mulliken charges:
               1
     1  C    0.000000
     2  C    0.000000
     3  C    0.000000
     4  N    0.000000
     5  C    0.000000
     6  O    0.000000
     7  N    0.000000
     8  C    0.000000
     9  C    0.000000
    10  C    0.000000
    11  C    0.000000
    12  C    0.000000
    13  C    0.000000
    14  H    0.000000
    15  H    0.000000
    16  H    0.000000
    17  H    0.000000
    18  H    0.000000
    19  H    0.000000
    20  H    0.000000
    21  H    0.000000
    22  H    0.000000
    23  H    0.000000
    24  H    0.000000
    25  H    0.000000
    26  S    0.000000
    27  O    0.000000
    28  O    0.000000
    29  H    0.000000
    30  C    0.000000
    31  F    0.000000
    32  F    0.000000
    33  F    0.000000
    34  O   -0.657847
    35  O   -0.655490
    36  C    0.505414
    37  C   -0.435762
    38  C   -0.699215
    39  H    0.188833
    40  H    0.188931
    41  H    0.207943
    42  H    0.149599
    43  H    0.207594
 Sum of Mulliken charges =  -1.00000
 Mulliken charges with hydrogens summed into heavy atoms:
               1
     1  C    0.000000
     2  C    0.000000
     3  C    0.000000
     4  N    0.000000
     5  C    0.000000
     6  O    0.000000
     7  N    0.000000
     8  C    0.000000
     9  C    0.000000
    10  C    0.000000
    11  C    0.000000
    12  C    0.000000
    13  C    0.000000
    26  S    0.000000
    27  O    0.000000
    28  O    0.000000
    30  C    0.000000
    31  F    0.000000
    32  F    0.000000
    33  F    0.000000
    34  O   -0.657847
    35  O   -0.655490
    36  C    0.505414
    37  C   -0.057998
    38  C   -0.134079
         Mulliken charges condensed to fragments:
      1      0.000000
      2     -1.000000
 Electronic spatial extent (au):  <R**2>=           3550.4726
 Charge=             -1.0000 electrons
 Dipole moment (field-independent basis, Debye):
    X=             16.7948    Y=             -8.3406    Z=             -0.1435  Tot=             18.7524
 Quadrupole moment (field-independent basis, Debye-Ang):
   XX=           -100.9456   YY=            -53.9694   ZZ=            -32.4578
   XY=             26.3430   XZ=              1.4909   YZ=              0.0180
 Traceless Quadrupole moment (field-independent basis, Debye-Ang):
   XX=            -38.4880   YY=              8.4882   ZZ=             29.9998
   XY=             26.3430   XZ=              1.4909   YZ=              0.0180
 Octapole moment (field-independent basis, Debye-Ang**2):
  XXX=            664.7106  YYY=           -379.6429  ZZZ=             -4.6735  XYY=            182.7930
  XXY=           -198.9030  XXZ=            -10.8445  XZZ=            118.0584  YZZ=            -97.4168
  YYZ=             -1.2681  XYZ=              1.8116
 Hexadecapole moment (field-independent basis, Debye-Ang**3):
 XXXX=          -4242.0986 YYYY=          -2595.5992 ZZZZ=            -51.7725 XXXY=           1497.9626
 XXXZ=             74.1562 YYYX=           1310.6457 YYYZ=            -11.8992 ZZZX=             23.2661
 ZZZY=            -12.1457 XXYY=          -1051.3567 XXZZ=           -467.2205 YYZZ=           -367.9689
 XXYZ=            -17.9115 YYXZ=             10.9458 ZZXY=            346.6804
 N-N= 1.685535285626D+02 E-N=-9.724509428640D+02  KE= 2.654894169065D+02
 CPIOFr:  IOpCl= 0 IRwI=-1 IRwCP=  731 ICalc=  4 LCPTot=      412865 Len1MO=     1069949 IndFrg=     5762610
 CPIOFr:  IOpCl= 0 IRwI=-2 IRwCP=  731 ICalc=  0 LCPTot=      412865 Len1MO=     1069949 IndFrg=     1482814
 Counterpoise corrected energy =   -1727.247042683218
                   BSSE energy =       0.001776514445
               sum of monomers =   -1727.159645946234
           complexation energy =     -55.96 kcal/mole (raw)
           complexation energy =     -54.84 kcal/mole (corrected)
 1\1\GINC-R3748\SP\RM062X\Gen\C14H18F3N2O5S1(1-)\ROOT\21-Feb-2019\0\\# 
 M062X/Gen 6D SCF=Tight INT(grid=ultrafine) Counterpoise=2 maxdisk=6710
 88640\\4SulfOxyCF3_EtO.M062X_6-31pGd_bsse\\-1,1\C,0,-2.1691518038,2.18
 11031174,-0.1737462307\C,0,-0.7914325814,1.570967769,0.0723154464\C,0,
 0.3176937215,2.6025303916,-0.1004481368\N,0,1.6031642402,1.9857265324,
 0.1395667749\C,0,2.7344558547,2.7121655484,0.0227499145\O,0,2.75035950
 45,3.9057755048,-0.2831510539\N,0,3.8825448409,1.960467313,0.286337017
 7\C,0,5.1808865899,2.3860737943,0.2543056783\C,0,5.5880636399,3.707594
 3063,-0.0509636564\C,0,6.1696105963,1.4119854763,0.5555713965\C,0,7.50
 82433857,1.7396537581,0.547927945\C,0,7.8916919494,3.0544470563,0.2430
 009639\C,0,6.934002035,4.029629163,-0.0559429495\H,0,-2.962498214,1.43
 68353866,-0.0500388319\H,0,-2.2450251885,2.5864572151,-1.1897544013\H,
 0,-2.3675153792,3.0020794468,0.5255081125\H,0,-0.6136143249,0.73469037
 55,-0.6139739561\H,0,-0.7337567973,1.146688583,1.0815705911\H,0,0.1684
 049552,3.4435220213,0.5922896477\H,0,0.2897560249,3.0279384495,-1.1139
 641222\H,0,1.6289763806,0.980466249,0.4000106729\H,0,3.7488965096,0.95
 29675207,0.5342245644\H,0,4.8365890126,4.4519651527,-0.2736262123\H,0,
 5.8414927849,0.4035543246,0.7956826402\H,0,8.2646194442,0.9972714055,0
 .7849131261\S,0,9.5787905211,3.4652187858,0.1842324503\O,0,10.37605514
 74,2.5089280362,0.9433115115\O,0,9.7717732963,4.904446373,0.3184680311
 \H,0,7.2541364374,5.0428225181,-0.2815557748\C,0,10.0515643956,3.12413
 69591,-1.5837269553\F,0,11.3432462511,3.402493685,-1.7582007302\F,0,9.
 8464110915,1.8433350087,-1.8875738541\F,0,9.3366723504,3.8798641911,-2
 .416497161\O,0,1.5227077451,-0.7256611959,0.8314776774\O,0,3.763713311
 2,-0.7049662198,0.9594712324\C,0,2.6372635354,-1.2679690845,1.04005655
 86\C,0,2.610093782,-2.7543268697,1.4272777662\C,0,3.9822856531,-3.3670
 737938,1.6782002923\H,0,2.0815083357,-3.2844038379,0.6253078595\H,0,1.
 9697432366,-2.8426497278,2.3135822765\H,0,4.6113446628,-3.2838445084,0
 .787291116\H,0,3.8996889837,-4.4263133404,1.9505554275\H,0,4.499604082
 6,-2.8390228401,2.4844073353\\Version=ES64L-G09RevE.01\State=1-A\HF=-2
 67.7284139\RMSD=4.108e-09\Dipole=0.4785322,0.1091848,-0.8485355\Quadru
 pole=-28.3467033,3.8168661,24.5298371,-18.1786782,-0.2372481,4.1018176
 \PG=C01 [X(C14H18F3N2O5S1)]\\@


 THERE'S NOTHING SO GREAT AS THE GREAT OUTDOORS.

                                       -- ZIGGY
 Job cpu time:       0 days  2 hours 17 minutes 10.4 seconds.
 File lengths (MBytes):  RWF=    218 Int=      0 D2E=      0 Chk=     60 Scr=      1
 Normal termination of Gaussian 09 at Thu Feb 21 22:01:28 2019.
WARNING: pbs_rusage is deprecated and values produced may not be accurate


=============================================================================
                                     Resource usage:
                                       CPU time:              02:05:11
   JobId:    5977771.r-man2            Elapsed time:          00:33:03
   Project:             q95            Requested time:        48:00:00
   Service Units:      2.20 
                                       Max physical memory:      162MB
                                       Max virtual memory:       452MB
                                       Requested memory:           0MB

                                       Number of cpus:               4

                                       Max jobfs disk use:       0.2GB
                                       Requested jobfs:          5.0GB
=============================================================================

