 Entering Gaussian System, Link 0=/apps/gaussian/g09e01/g09/g09
 AtFile(1): /home/507/hio507/Basis/6-31pGd.gbs
 Initial command:
 /apps/gaussian/g09e01/g09/l1.exe "/jobfs/local/5875486.r-man2/Gau-34790.inp" -scrdir="/jobfs/local/5875486.r-man2/"
 Entering Link 1 = /apps/gaussian/g09e01/g09/l1.exe PID=     34791.
  
 Copyright (c) 1988,1990,1992,1993,1995,1998,2003,2009,2015,
            Gaussian, Inc.  All Rights Reserved.
  
 This is part of the Gaussian(R) 09 program.  It is based on
 the Gaussian(R) 03 system (copyright 2003, Gaussian, Inc.),
 the Gaussian(R) 98 system (copyright 1998, Gaussian, Inc.),
 the Gaussian(R) 94 system (copyright 1995, Gaussian, Inc.),
 the Gaussian 92(TM) system (copyright 1992, Gaussian, Inc.),
 the Gaussian 90(TM) system (copyright 1990, Gaussian, Inc.),
 the Gaussian 88(TM) system (copyright 1988, Gaussian, Inc.),
 the Gaussian 86(TM) system (copyright 1986, Carnegie Mellon
 University), and the Gaussian 82(TM) system (copyright 1983,
 Carnegie Mellon University). Gaussian is a federally registered
 trademark of Gaussian, Inc.
  
 This software contains proprietary and confidential information,
 including trade secrets, belonging to Gaussian, Inc.
  
 This software is provided under written license and may be
 used, copied, transmitted, or stored only in accord with that
 written license.
  
 The following legend is applicable only to US Government
 contracts under FAR:
  
                    RESTRICTED RIGHTS LEGEND
  
 Use, reproduction and disclosure by the US Government is
 subject to restrictions as set forth in subparagraphs (a)
 and (c) of the Commercial Computer Software - Restricted
 Rights clause in FAR 52.227-19.
  
 Gaussian, Inc.
 340 Quinnipiac St., Bldg. 40, Wallingford CT 06492
  
  
 ---------------------------------------------------------------
 Warning -- This program may not be used in any manner that
 competes with the business of Gaussian, Inc. or will provide
 assistance to any competitor of Gaussian, Inc.  The licensee
 of this program is prohibited from giving any competitor of
 Gaussian, Inc. access to this program.  By using this program,
 the user acknowledges that Gaussian, Inc. is engaged in the
 business of creating and licensing software in the field of
 computational chemistry and represents and warrants to the
 licensee that it is not a competitor of Gaussian, Inc. and that
 it will not use this program in any manner prohibited above.
 ---------------------------------------------------------------
  

 Cite this work as:
 Gaussian 09, Revision E.01,
 M. J. Frisch, G. W. Trucks, H. B. Schlegel, G. E. Scuseria, 
 M. A. Robb, J. R. Cheeseman, G. Scalmani, V. Barone, B. Mennucci, 
 G. A. Petersson, H. Nakatsuji, M. Caricato, X. Li, H. P. Hratchian, 
 A. F. Izmaylov, J. Bloino, G. Zheng, J. L. Sonnenberg, M. Hada, 
 M. Ehara, K. Toyota, R. Fukuda, J. Hasegawa, M. Ishida, T. Nakajima, 
 Y. Honda, O. Kitao, H. Nakai, T. Vreven, J. A. Montgomery, Jr., 
 J. E. Peralta, F. Ogliaro, M. Bearpark, J. J. Heyd, E. Brothers, 
 K. N. Kudin, V. N. Staroverov, T. Keith, R. Kobayashi, J. Normand, 
 K. Raghavachari, A. Rendell, J. C. Burant, S. S. Iyengar, J. Tomasi, 
 M. Cossi, N. Rega, J. M. Millam, M. Klene, J. E. Knox, J. B. Cross, 
 V. Bakken, C. Adamo, J. Jaramillo, R. Gomperts, R. E. Stratmann, 
 O. Yazyev, A. J. Austin, R. Cammi, C. Pomelli, J. W. Ochterski, 
 R. L. Martin, K. Morokuma, V. G. Zakrzewski, G. A. Voth, 
 P. Salvador, J. J. Dannenberg, S. Dapprich, A. D. Daniels, 
 O. Farkas, J. B. Foresman, J. V. Ortiz, J. Cioslowski, 
 and D. J. Fox, Gaussian, Inc., Wallingford CT, 2013.
 
 ******************************************
 Gaussian 09:  ES64L-G09RevE.01 30-Nov-2015
                19-Feb-2019 
 ******************************************
 %chk=4SulfCF3_EtO.M062X_6-31pGd_opt.chk
 %mem=196608000
 %nproc=8
 Will use up to    8 processors via shared memory.
 ----------------------------------------------------------------------
 # M062X/Gen 6D SCF=Tight INT(grid=ultrafine) OPT IOP(2/17=4) maxdisk=2
 684354560
 ----------------------------------------------------------------------
 1/14=-1,18=20,19=15,26=4,38=1/1,3;
 2/9=110,12=2,17=4,18=5,40=1/2;
 3/5=7,8=2,11=2,16=1,25=1,30=1,71=1,74=-55,75=-5/1,2,3;
 4//1;
 5/5=2,32=2,38=5/2;
 6/7=2,8=2,9=2,10=2,28=1/1;
 7//1,2,3,16;
 1/14=-1,18=20,19=15,26=4/3(2);
 2/9=110,17=4/2;
 99//99;
 2/9=110,17=4/2;
 3/5=7,6=1,8=2,11=2,16=1,25=1,30=1,71=1,74=-55,75=-5,82=7/1,2,3;
 4/5=5,16=3,69=1/1;
 5/5=2,32=2,38=5/2;
 7//1,2,3,16;
 1/14=-1,18=20,19=15,26=4/3(-5);
 2/9=110,17=4/2;
 6/7=2,8=2,9=2,10=2,19=2,28=1/1;
 99/9=1/99;
 ------------------------------
 4SulfCF3_EtO.M062X_6-31pGd_opt
 ------------------------------
 Symbolic Z-matrix:
 Charge = -1 Multiplicity = 1
 C                    -1.8063    2.56959   0.24396 
 C                    -0.49713   1.79117   0.1531 
 C                     0.70495   2.73634   0.05259 
 N                     1.95026   1.99242  -0.04408 
 C                     3.15349   2.62657  -0.15575 
 O                     3.18055   3.84656  -0.17267 
 N                     4.30487   1.88817  -0.2613 
 C                     5.65353   2.38305  -0.39939 
 C                     6.01405   3.7537   -0.34289 
 C                     6.68631   1.44433  -0.60541 
 C                     8.01535   1.84722  -0.75543 
 C                     8.34922   3.20016  -0.69738 
 C                     7.34752   4.14945  -0.49122 
 H                    -2.6572    1.85961   0.31379 
 H                    -1.94358   3.20081  -0.65988 
 H                    -1.80852   3.21789   1.14597 
 H                    -0.53018   1.13725  -0.74556 
 H                    -0.39369   1.15324   1.05771 
 H                     0.73549   3.38772   0.95383 
 H                     0.59013   3.37403  -0.85174 
 H                     1.91399   0.85202  -0.03245 
 H                     4.1794    0.74904  -0.25393 
 H                     5.30993   4.5485   -0.18292 
 H                     6.47042   0.38655  -0.65902 
 H                     8.78529   1.10352  -0.91775 
 S                     10.05626   3.72093  -0.89921 
 C                     10.49365   3.53875   0.86121 
 F                     10.41192   2.21141   1.23872 
 F                     11.79346   3.97141   1.03881 
 F                     9.66088   4.31276   1.64817 
 H                     7.60096   5.20136  -0.44538 
 O                     1.92218  -1.20384   0.23343 
 O                     4.13793  -1.30898   0.02683 
 C                     3.07946  -1.89694   0.21316 
 C                     3.04225  -3.38715   0.42331 
 C                     4.42588  -4.03531   0.37984 
 H                     2.40784  -3.84183  -0.36717 
 H                     2.58099  -3.59477   1.41239 
 H                     4.90225  -3.86302  -0.60894 
 H                     4.32886  -5.12963   0.54131 
 H                     5.07405  -3.61494   1.17836 
 
 Add virtual bond connecting atoms O32        and H21        Dist= 3.92D+00.
 Add virtual bond connecting atoms O33        and H22        Dist= 3.93D+00.

 GradGradGradGradGradGradGradGradGradGradGradGradGradGradGradGradGradGrad
 Berny optimization.
 Initialization pass.
                           ----------------------------
                           !    Initial Parameters    !
                           ! (Angstroms and Degrees)  !
 --------------------------                            --------------------------
 ! Name  Definition              Value          Derivative Info.                !
 --------------------------------------------------------------------------------
 ! R1    R(1,2)                  1.5258         estimate D2E/DX2                !
 ! R2    R(1,14)                 1.1104         estimate D2E/DX2                !
 ! R3    R(1,15)                 1.111          estimate D2E/DX2                !
 ! R4    R(1,16)                 1.1108         estimate D2E/DX2                !
 ! R5    R(2,3)                  1.5325         estimate D2E/DX2                !
 ! R6    R(2,17)                 1.1119         estimate D2E/DX2                !
 ! R7    R(2,18)                 1.1117         estimate D2E/DX2                !
 ! R8    R(3,4)                  1.4538         estimate D2E/DX2                !
 ! R9    R(3,19)                 1.1124         estimate D2E/DX2                !
 ! R10   R(3,20)                 1.1125         estimate D2E/DX2                !
 ! R11   R(4,5)                  1.3647         estimate D2E/DX2                !
 ! R12   R(4,21)                 1.141          estimate D2E/DX2                !
 ! R13   R(5,6)                  1.2204         estimate D2E/DX2                !
 ! R14   R(5,7)                  1.3719         estimate D2E/DX2                !
 ! R15   R(7,8)                  1.4432         estimate D2E/DX2                !
 ! R16   R(7,22)                 1.146          estimate D2E/DX2                !
 ! R17   R(8,9)                  1.4184         estimate D2E/DX2                !
 ! R18   R(8,10)                 1.4108         estimate D2E/DX2                !
 ! R19   R(9,13)                 1.3988         estimate D2E/DX2                !
 ! R20   R(9,23)                 1.0738         estimate D2E/DX2                !
 ! R21   R(10,11)                1.3968         estimate D2E/DX2                !
 ! R22   R(10,24)                1.0809         estimate D2E/DX2                !
 ! R23   R(11,12)                1.3947         estimate D2E/DX2                !
 ! R24   R(11,25)                1.0827         estimate D2E/DX2                !
 ! R25   R(12,13)                1.3954         estimate D2E/DX2                !
 ! R26   R(12,26)                1.7961         estimate D2E/DX2                !
 ! R27   R(13,31)                1.083          estimate D2E/DX2                !
 ! R28   R(21,32)                2.073          estimate D2E/DX2                !
 ! R29   R(22,33)                2.0775         estimate D2E/DX2                !
 ! R30   R(26,27)                1.8231         estimate D2E/DX2                !
 ! R31   R(27,28)                1.3824         estimate D2E/DX2                !
 ! R32   R(27,29)                1.3814         estimate D2E/DX2                !
 ! R33   R(27,30)                1.3827         estimate D2E/DX2                !
 ! R34   R(32,34)                1.3491         estimate D2E/DX2                !
 ! R35   R(33,34)                1.2251         estimate D2E/DX2                !
 ! R36   R(34,35)                1.5054         estimate D2E/DX2                !
 ! R37   R(35,36)                1.5285         estimate D2E/DX2                !
 ! R38   R(35,37)                1.1109         estimate D2E/DX2                !
 ! R39   R(35,38)                1.1109         estimate D2E/DX2                !
 ! R40   R(36,39)                1.111          estimate D2E/DX2                !
 ! R41   R(36,40)                1.1104         estimate D2E/DX2                !
 ! R42   R(36,41)                1.1111         estimate D2E/DX2                !
 ! A1    A(2,1,14)             109.5753         estimate D2E/DX2                !
 ! A2    A(2,1,15)             110.331          estimate D2E/DX2                !
 ! A3    A(2,1,16)             110.3537         estimate D2E/DX2                !
 ! A4    A(14,1,15)            108.6486         estimate D2E/DX2                !
 ! A5    A(14,1,16)            108.6972         estimate D2E/DX2                !
 ! A6    A(15,1,16)            109.1953         estimate D2E/DX2                !
 ! A7    A(1,2,3)              111.2407         estimate D2E/DX2                !
 ! A8    A(1,2,17)             108.824          estimate D2E/DX2                !
 ! A9    A(1,2,18)             108.9121         estimate D2E/DX2                !
 ! A10   A(3,2,17)             109.4532         estimate D2E/DX2                !
 ! A11   A(3,2,18)             109.5293         estimate D2E/DX2                !
 ! A12   A(17,2,18)            108.841          estimate D2E/DX2                !
 ! A13   A(2,3,4)              111.1416         estimate D2E/DX2                !
 ! A14   A(2,3,19)             109.2414         estimate D2E/DX2                !
 ! A15   A(2,3,20)             109.0195         estimate D2E/DX2                !
 ! A16   A(4,3,19)             109.268          estimate D2E/DX2                !
 ! A17   A(4,3,20)             109.1273         estimate D2E/DX2                !
 ! A18   A(19,3,20)            109.0117         estimate D2E/DX2                !
 ! A19   A(3,4,5)              121.527          estimate D2E/DX2                !
 ! A20   A(3,4,21)             118.9151         estimate D2E/DX2                !
 ! A21   A(5,4,21)             119.5568         estimate D2E/DX2                !
 ! A22   A(4,5,6)              119.0262         estimate D2E/DX2                !
 ! A23   A(4,5,7)              119.7463         estimate D2E/DX2                !
 ! A24   A(6,5,7)              121.2237         estimate D2E/DX2                !
 ! A25   A(5,7,8)              127.3791         estimate D2E/DX2                !
 ! A26   A(5,7,22)             116.2708         estimate D2E/DX2                !
 ! A27   A(8,7,22)             116.3439         estimate D2E/DX2                !
 ! A28   A(7,8,9)              124.4072         estimate D2E/DX2                !
 ! A29   A(7,8,10)             118.0287         estimate D2E/DX2                !
 ! A30   A(9,8,10)             117.5641         estimate D2E/DX2                !
 ! A31   A(8,9,13)             120.7612         estimate D2E/DX2                !
 ! A32   A(8,9,23)             123.6774         estimate D2E/DX2                !
 ! A33   A(13,9,23)            115.5608         estimate D2E/DX2                !
 ! A34   A(8,10,11)            121.3522         estimate D2E/DX2                !
 ! A35   A(8,10,24)            120.8092         estimate D2E/DX2                !
 ! A36   A(11,10,24)           117.8373         estimate D2E/DX2                !
 ! A37   A(10,11,12)           120.2036         estimate D2E/DX2                !
 ! A38   A(10,11,25)           119.6428         estimate D2E/DX2                !
 ! A39   A(12,11,25)           120.1536         estimate D2E/DX2                !
 ! A40   A(11,12,13)           119.6192         estimate D2E/DX2                !
 ! A41   A(11,12,26)           120.2711         estimate D2E/DX2                !
 ! A42   A(13,12,26)           120.108          estimate D2E/DX2                !
 ! A43   A(9,13,12)            120.499          estimate D2E/DX2                !
 ! A44   A(9,13,31)            119.5637         estimate D2E/DX2                !
 ! A45   A(12,13,31)           119.9373         estimate D2E/DX2                !
 ! A46   A(12,26,27)            95.1947         estimate D2E/DX2                !
 ! A47   A(26,27,28)           110.2102         estimate D2E/DX2                !
 ! A48   A(26,27,29)           108.5783         estimate D2E/DX2                !
 ! A49   A(26,27,30)           110.4352         estimate D2E/DX2                !
 ! A50   A(28,27,29)           108.7387         estimate D2E/DX2                !
 ! A51   A(28,27,30)           110.2703         estimate D2E/DX2                !
 ! A52   A(29,27,30)           108.5544         estimate D2E/DX2                !
 ! A53   A(21,32,34)           120.7279         estimate D2E/DX2                !
 ! A54   A(22,33,34)           120.8803         estimate D2E/DX2                !
 ! A55   A(32,34,33)           119.7936         estimate D2E/DX2                !
 ! A56   A(32,34,35)           119.0293         estimate D2E/DX2                !
 ! A57   A(33,34,35)           121.1771         estimate D2E/DX2                !
 ! A58   A(34,35,36)           113.167          estimate D2E/DX2                !
 ! A59   A(34,35,37)           108.6595         estimate D2E/DX2                !
 ! A60   A(34,35,38)           108.6358         estimate D2E/DX2                !
 ! A61   A(36,35,37)           108.8536         estimate D2E/DX2                !
 ! A62   A(36,35,38)           108.7787         estimate D2E/DX2                !
 ! A63   A(37,35,38)           108.6583         estimate D2E/DX2                !
 ! A64   A(35,36,39)           110.3456         estimate D2E/DX2                !
 ! A65   A(35,36,40)           109.5523         estimate D2E/DX2                !
 ! A66   A(35,36,41)           110.316          estimate D2E/DX2                !
 ! A67   A(39,36,40)           108.6455         estimate D2E/DX2                !
 ! A68   A(39,36,41)           109.3189         estimate D2E/DX2                !
 ! A69   A(40,36,41)           108.6222         estimate D2E/DX2                !
 ! A70   L(4,21,32,2,-1)       181.3405         estimate D2E/DX2                !
 ! A71   L(7,22,33,1,-1)       184.3596         estimate D2E/DX2                !
 ! A72   L(4,21,32,2,-2)       187.4071         estimate D2E/DX2                !
 ! A73   L(7,22,33,1,-2)       188.0684         estimate D2E/DX2                !
 ! D1    D(14,1,2,3)           179.9051         estimate D2E/DX2                !
 ! D2    D(14,1,2,17)           59.241          estimate D2E/DX2                !
 ! D3    D(14,1,2,18)          -59.2784         estimate D2E/DX2                !
 ! D4    D(15,1,2,3)            60.3221         estimate D2E/DX2                !
 ! D5    D(15,1,2,17)          -60.342          estimate D2E/DX2                !
 ! D6    D(15,1,2,18)         -178.8614         estimate D2E/DX2                !
 ! D7    D(16,1,2,3)           -60.4378         estimate D2E/DX2                !
 ! D8    D(16,1,2,17)          178.8981         estimate D2E/DX2                !
 ! D9    D(16,1,2,18)           60.3788         estimate D2E/DX2                !
 ! D10   D(1,2,3,4)           -179.567          estimate D2E/DX2                !
 ! D11   D(1,2,3,19)            59.7885         estimate D2E/DX2                !
 ! D12   D(1,2,3,20)           -59.2422         estimate D2E/DX2                !
 ! D13   D(17,2,3,4)           -59.2739         estimate D2E/DX2                !
 ! D14   D(17,2,3,19)         -179.9184         estimate D2E/DX2                !
 ! D15   D(17,2,3,20)           61.0509         estimate D2E/DX2                !
 ! D16   D(18,2,3,4)            59.9799         estimate D2E/DX2                !
 ! D17   D(18,2,3,19)          -60.6646         estimate D2E/DX2                !
 ! D18   D(18,2,3,20)         -179.6954         estimate D2E/DX2                !
 ! D19   D(2,3,4,5)            179.3905         estimate D2E/DX2                !
 ! D20   D(2,3,4,21)            -0.2165         estimate D2E/DX2                !
 ! D21   D(19,3,4,5)           -59.9806         estimate D2E/DX2                !
 ! D22   D(19,3,4,21)          120.4123         estimate D2E/DX2                !
 ! D23   D(20,3,4,5)            59.1296         estimate D2E/DX2                !
 ! D24   D(20,3,4,21)         -120.4775         estimate D2E/DX2                !
 ! D25   D(3,4,5,6)              0.1001         estimate D2E/DX2                !
 ! D26   D(3,4,5,7)           -179.1923         estimate D2E/DX2                !
 ! D27   D(21,4,5,6)           179.7047         estimate D2E/DX2                !
 ! D28   D(21,4,5,7)             0.4124         estimate D2E/DX2                !
 ! D29   D(3,4,32,34)         -176.6273         estimate D2E/DX2                !
 ! D30   D(5,4,32,34)           -1.245          estimate D2E/DX2                !
 ! D31   D(4,5,7,8)            179.3466         estimate D2E/DX2                !
 ! D32   D(4,5,7,22)             0.2952         estimate D2E/DX2                !
 ! D33   D(6,5,7,8)              0.0703         estimate D2E/DX2                !
 ! D34   D(6,5,7,22)          -178.9811         estimate D2E/DX2                !
 ! D35   D(5,7,8,9)              5.1998         estimate D2E/DX2                !
 ! D36   D(5,7,8,10)          -174.7603         estimate D2E/DX2                !
 ! D37   D(22,7,8,9)          -175.7493         estimate D2E/DX2                !
 ! D38   D(22,7,8,10)            4.2905         estimate D2E/DX2                !
 ! D39   D(5,7,33,34)            0.836          estimate D2E/DX2                !
 ! D40   D(8,7,33,34)          176.6562         estimate D2E/DX2                !
 ! D41   D(7,8,9,13)          -179.7767         estimate D2E/DX2                !
 ! D42   D(7,8,9,23)             0.5345         estimate D2E/DX2                !
 ! D43   D(10,8,9,13)            0.1837         estimate D2E/DX2                !
 ! D44   D(10,8,9,23)         -179.5051         estimate D2E/DX2                !
 ! D45   D(7,8,10,11)          179.6444         estimate D2E/DX2                !
 ! D46   D(7,8,10,24)            0.0762         estimate D2E/DX2                !
 ! D47   D(9,8,10,11)           -0.3185         estimate D2E/DX2                !
 ! D48   D(9,8,10,24)         -179.8867         estimate D2E/DX2                !
 ! D49   D(8,9,13,12)           -0.0265         estimate D2E/DX2                !
 ! D50   D(8,9,13,31)          179.9619         estimate D2E/DX2                !
 ! D51   D(23,9,13,12)         179.6864         estimate D2E/DX2                !
 ! D52   D(23,9,13,31)          -0.3252         estimate D2E/DX2                !
 ! D53   D(8,10,11,12)           0.2961         estimate D2E/DX2                !
 ! D54   D(8,10,11,25)        -179.6631         estimate D2E/DX2                !
 ! D55   D(24,10,11,12)        179.8767         estimate D2E/DX2                !
 ! D56   D(24,10,11,25)         -0.0825         estimate D2E/DX2                !
 ! D57   D(10,11,12,13)         -0.1279         estimate D2E/DX2                !
 ! D58   D(10,11,12,26)       -179.6572         estimate D2E/DX2                !
 ! D59   D(25,11,12,13)        179.8311         estimate D2E/DX2                !
 ! D60   D(25,11,12,26)          0.3018         estimate D2E/DX2                !
 ! D61   D(11,12,13,9)          -0.0046         estimate D2E/DX2                !
 ! D62   D(11,12,13,31)       -179.993          estimate D2E/DX2                !
 ! D63   D(26,12,13,9)         179.5254         estimate D2E/DX2                !
 ! D64   D(26,12,13,31)         -0.4629         estimate D2E/DX2                !
 ! D65   D(11,12,26,27)        -87.004          estimate D2E/DX2                !
 ! D66   D(13,12,26,27)         93.469          estimate D2E/DX2                !
 ! D67   D(12,26,27,28)         64.8927         estimate D2E/DX2                !
 ! D68   D(12,26,27,29)       -176.1025         estimate D2E/DX2                !
 ! D69   D(12,26,27,30)        -57.1896         estimate D2E/DX2                !
 ! D70   D(21,32,34,33)         -0.4951         estimate D2E/DX2                !
 ! D71   D(21,32,34,35)        179.4277         estimate D2E/DX2                !
 ! D72   D(22,33,34,32)          0.1897         estimate D2E/DX2                !
 ! D73   D(22,33,34,35)       -179.7314         estimate D2E/DX2                !
 ! D74   D(32,34,35,36)       -179.7683         estimate D2E/DX2                !
 ! D75   D(32,34,35,37)         59.2008         estimate D2E/DX2                !
 ! D76   D(32,34,35,38)        -58.8489         estimate D2E/DX2                !
 ! D77   D(33,34,35,36)          0.1534         estimate D2E/DX2                !
 ! D78   D(33,34,35,37)       -120.8776         estimate D2E/DX2                !
 ! D79   D(33,34,35,38)        121.0727         estimate D2E/DX2                !
 ! D80   D(34,35,36,39)        -60.4495         estimate D2E/DX2                !
 ! D81   D(34,35,36,40)        179.9766         estimate D2E/DX2                !
 ! D82   D(34,35,36,41)         60.4498         estimate D2E/DX2                !
 ! D83   D(37,35,36,39)         60.4716         estimate D2E/DX2                !
 ! D84   D(37,35,36,40)        -59.1023         estimate D2E/DX2                !
 ! D85   D(37,35,36,41)       -178.6291         estimate D2E/DX2                !
 ! D86   D(38,35,36,39)        178.712          estimate D2E/DX2                !
 ! D87   D(38,35,36,40)         59.1382         estimate D2E/DX2                !
 ! D88   D(38,35,36,41)        -60.3886         estimate D2E/DX2                !
 --------------------------------------------------------------------------------
 Trust Radius=3.00D-01 FncErr=1.00D-07 GrdErr=1.00D-06
 Number of steps in this run=    213 maximum allowed number of steps=    246.
 GradGradGradGradGradGradGradGradGradGradGradGradGradGradGradGradGradGrad

                          Input orientation:                          
 ---------------------------------------------------------------------
 Center     Atomic      Atomic             Coordinates (Angstroms)
 Number     Number       Type             X           Y           Z
 ---------------------------------------------------------------------
      1          6           0       -1.806300    2.569590    0.243960
      2          6           0       -0.497130    1.791170    0.153100
      3          6           0        0.704950    2.736340    0.052590
      4          7           0        1.950260    1.992420   -0.044080
      5          6           0        3.153490    2.626570   -0.155750
      6          8           0        3.180550    3.846560   -0.172670
      7          7           0        4.304870    1.888170   -0.261300
      8          6           0        5.653530    2.383050   -0.399390
      9          6           0        6.014050    3.753700   -0.342890
     10          6           0        6.686310    1.444330   -0.605410
     11          6           0        8.015350    1.847220   -0.755430
     12          6           0        8.349220    3.200160   -0.697380
     13          6           0        7.347520    4.149450   -0.491220
     14          1           0       -2.657200    1.859610    0.313790
     15          1           0       -1.943580    3.200810   -0.659880
     16          1           0       -1.808520    3.217890    1.145970
     17          1           0       -0.530180    1.137250   -0.745560
     18          1           0       -0.393690    1.153240    1.057710
     19          1           0        0.735490    3.387720    0.953830
     20          1           0        0.590130    3.374030   -0.851740
     21          1           0        1.913990    0.852020   -0.032450
     22          1           0        4.179400    0.749040   -0.253930
     23          1           0        5.309930    4.548500   -0.182920
     24          1           0        6.470420    0.386550   -0.659020
     25          1           0        8.785290    1.103520   -0.917750
     26         16           0       10.056260    3.720930   -0.899210
     27          6           0       10.493650    3.538750    0.861210
     28          9           0       10.411920    2.211410    1.238720
     29          9           0       11.793460    3.971410    1.038810
     30          9           0        9.660880    4.312760    1.648170
     31          1           0        7.600960    5.201360   -0.445380
     32          8           0        1.922180   -1.203840    0.233430
     33          8           0        4.137930   -1.308980    0.026830
     34          6           0        3.079460   -1.896940    0.213160
     35          6           0        3.042250   -3.387150    0.423310
     36          6           0        4.425880   -4.035310    0.379840
     37          1           0        2.407840   -3.841830   -0.367170
     38          1           0        2.580990   -3.594770    1.412390
     39          1           0        4.902250   -3.863020   -0.608940
     40          1           0        4.328860   -5.129630    0.541310
     41          1           0        5.074050   -3.614940    1.178360
 ---------------------------------------------------------------------
                    Distance matrix (angstroms):
                    1          2          3          4          5
     1  C    0.000000
     2  C    1.525818   0.000000
     3  C    2.524045   1.532464   0.000000
     4  N    3.811540   2.463554   1.453808   0.000000
     5  C    4.976197   3.757700   2.459838   1.364690   0.000000
     6  O    5.164582   4.225646   2.722485   2.228897   1.220407
     7  N    6.169767   4.820824   3.711784   2.366905   1.371879
     8  C    7.489844   6.203724   4.981721   3.740728   2.523661
     9  C    7.931228   6.818577   5.420145   4.439120   3.080300
    10  C    8.608836   7.231697   6.154585   4.800590   3.752426
    11  C    9.898758   8.561010   7.408467   6.108389   4.960311
    12  C   10.218529   8.998137   7.694962   6.544626   5.255281
    13  C    9.318201   8.216761   6.812954   5.829505   4.474549
    14  H    1.110396   2.167120   3.484384   4.623245   5.879865
    15  H    1.110951   2.177209   2.781736   4.123276   5.154030
    16  H    1.110819   2.177399   2.782966   4.128731   5.163882
    17  H    2.158525   1.111887   2.172482   2.715874   4.016886
    18  H    2.159561   1.111744   2.173357   2.722548   4.028110
    19  H    2.762960   2.170137   1.112413   2.101988   2.767172
    20  H    2.755097   2.167322   1.112495   2.100265   2.759332
    21  H    4.106946   2.594211   2.240462   1.141036   2.168085
    22  H    6.276217   4.808497   4.014364   2.561073   2.141787
    23  H    7.398584   6.437214   4.954314   4.223767   2.888734
    24  H    8.607272   7.153967   6.266462   4.836199   4.033980
    25  H   10.755497   9.369253   8.300576   6.947739   5.883664
    26  S   11.973001  10.779859   9.451050   8.332240   7.028413
    27  C   12.353503  11.151354   9.854764   8.729273   7.466206
    28  F   12.263879  10.970986   9.793249   8.561146   7.402818
    29  F   13.694903  12.513854  11.200584  10.098398   8.825228
    30  F   11.683607  10.572550   9.232533   8.228083   6.960136
    31  H    9.792750   8.807192   7.340249   6.510664   5.147176
    32  O    5.304757   3.850922   4.127877   3.208407   4.042230
    33  O    7.101008   5.577693   5.305717   3.961082   4.060913
    34  C    6.619780   5.137875   5.208778   4.058126   4.539132
    35  C    7.682666   6.278154   6.564871   5.509144   6.042558
    36  C    9.082028   7.631206   7.733541   6.530079   6.803417
    37  H    7.696672   6.359263   6.807962   5.861078   6.514667
    38  H    7.655905   6.330007   6.741775   5.808254   6.441420
    39  H    9.333303   7.855181   7.848981   6.581754   6.736343
    40  H    9.849193   8.446204   8.674391   7.531535   7.875660
    41  H    9.298426   7.830404   7.790709   6.534134   6.665197
                    6          7          8          9         10
     6  O    0.000000
     7  N    2.259921   0.000000
     8  C    2.882515   1.443211   0.000000
     9  C    2.840127   2.531433   1.418396   0.000000
    10  C    4.271806   2.446766   1.410771   2.419512   0.000000
    11  C    5.264244   3.743461   2.447871   2.794648   1.396844
    12  C    5.235294   4.274137   2.832527   2.425920   2.420055
    13  C    4.190090   3.797890   2.449123   1.398843   2.787097
    14  H    6.185785   6.985840   8.357682   8.899965   9.397796
    15  H    5.187589   6.397266   7.645434   7.983110   8.806997
    16  H    5.198544   6.412652   7.665982   7.981002   8.852965
    17  H    4.630128   4.916919   6.317446   7.059384   7.224380
    18  H    4.641444   4.935218   6.340697   7.055721   7.278537
    19  H    2.730907   4.057791   5.198816   5.447809   6.451376
    20  H    2.719319   4.044217   5.179255   5.460951   6.399049
    21  H    3.254398   2.615776   4.057445   5.032555   4.842949
    22  H    3.255601   1.146043   2.205495   3.521624   2.625179
    23  H    2.242116   2.844933   2.203201   1.073817   3.421811
    24  H    4.799109   2.665080   2.172724   3.412611   1.080917
    25  H    6.284308   4.595733   3.422545   3.877330   2.149285
    26  S    6.915131   6.069961   4.628582   4.080445   4.077473
    27  C    7.392231   6.502726   5.133373   4.643584   4.586219
    28  F    7.547082   6.296873   5.035389   4.921525   4.227221
    29  F    8.698591   7.880936   6.503080   5.946265   5.930647
    30  F    6.747405   6.181550   4.896441   4.192402   4.706865
    31  H    4.631401   4.677106   3.425999   2.150467   3.870073
    32  O    5.220628   3.934780   5.214328   6.453894   5.514834
    33  O    5.247473   3.214445   4.013701   5.411769   3.804561
    34  C    5.757332   4.006719   5.031835   6.391459   4.984326
    35  C    7.259537   5.467349   6.386770   7.772413   6.138456
    36  C    7.998749   5.959305   6.581008   7.982061   6.008886
    37  H    7.729570   6.036790   7.020304   8.408176   6.804818
    38  H    7.631860   5.986287   6.961134   8.298610   6.805711
    39  H    7.911524   5.792573   6.294579   7.702033   5.599183
    40  H    9.077465   7.063588   7.686353   9.084890   7.077393
    41  H    7.815664   5.740077   6.229043   7.582523   5.601556
                   11         12         13         14         15
    11  C    0.000000
    12  C    1.394735   0.000000
    13  C    2.411652   1.395370   0.000000
    14  H   10.725983  11.133769  10.294942   0.000000
    15  H   10.050951  10.292868   9.340926   1.804468   0.000000
    16  H   10.099628  10.323659   9.347795   1.804912   1.810974
    17  H    8.574977   9.116011   8.437784   2.483594   2.502663
    18  H    8.630240   9.149246   8.444098   2.485126   3.089469
    19  H    7.634859   7.792981   6.810825   3.775595   3.133115
    20  H    7.581182   7.762573   6.811283   3.767901   2.546861
    21  H    6.224124   6.882447   6.372344   4.693708   4.559751
    22  H    4.021444   4.857163   4.653609   6.949444   6.608090
    23  H    3.865744   3.364517   2.099062   8.423302   7.393049
    24  H    2.128300   3.383454   3.867412   9.296758   8.872173
    25  H    1.082703   2.152817   3.395114  11.533384  10.934979
    26  S    2.774306   1.796085   2.772608  12.906120  12.013491
    27  C    3.408338   2.672532   3.478528  13.268912  12.534457
    28  F    3.138920   2.996805   4.017367  13.106531  12.539616
    29  F    4.691012   3.933443   4.705218  14.622138  13.863104
    30  F    3.816274   2.908597   3.155201  12.630661  11.883897
    31  H    3.393833   2.151325   1.082981  10.815428   9.754304
    32  O    6.885748   7.846558   7.656183   5.510164   5.928157
    33  O    5.060426   6.212229   6.353291   7.503073   7.602272
    34  C    6.270559   7.387820   7.434468   6.857920   7.209728
    35  C    7.315721   8.533026   8.727660   7.747530   8.332648
    36  C    6.984074   8.300905   8.734130   9.215447   9.696003
    37  H    7.997512   9.219472   9.395551   7.656680   8.283678
    38  H    7.990430   9.159404   9.290666   7.641716   8.422942
    39  H    6.505359   7.859894   8.378119   9.526028   9.836955
    40  H    7.996761   9.331830   9.812225   9.884648  10.496790
    41  H    6.498152   7.790425   8.260866   9.512645   9.953929
                   16         17         18         19         20
    16  H    0.000000
    17  H    3.088867   0.000000
    18  H    2.504459   1.808499   0.000000
    19  H    2.556902   3.091029   2.505741   0.000000
    20  H    3.125499   2.503908   3.089629   1.811463   0.000000
    21  H    4.565424   2.562001   2.569936   2.965027   2.963845
    22  H    6.626472   4.751058   4.774613   4.503536   4.486737
    23  H    7.362663   6.786757   6.752646   4.854391   4.909502
    24  H    8.933942   7.041267   7.116950   6.670662   6.598484
    25  H   10.998105   9.317122   9.389280   8.574361   8.504130
    26  S   12.050262  10.898244  10.937277   9.509024   9.472603
    27  C   12.309648  11.396216  11.147351   9.759768  10.051917
    28  F   12.262168  11.172320  10.858807   9.751829  10.108871
    29  F   13.623257  12.770612  12.508760  11.073690  11.377418
    30  F   11.532479  10.939447  10.555832   9.000022   9.455647
    31  H    9.747044   9.095193   9.086307   7.237524   7.256445
    32  O    5.856838   3.528908   3.405660   4.796836   4.889667
    33  O    7.556804   5.326526   5.259356   5.873237   5.940484
    34  C    7.136103   4.811959   4.698897   5.828415   5.925698
    35  C    8.226710   5.882067   5.729161   7.176452   7.304259
    36  C    9.594978   7.251512   7.113987   8.309622   8.433747
    37  H    8.361036   5.793650   5.901659   7.537121   7.457045
    38  H    8.108706   6.060375   5.614100   7.236803   7.593022
    39  H    9.912287   7.384623   7.482484   8.507489   8.427824
    40  H   10.378542   8.033685   7.876776   9.253525   9.393132
    41  H    9.698370   7.595536   7.255775   8.240799   8.548248
                   21         22         23         24         25
    21  H    0.000000
    22  H    2.278539   0.000000
    23  H    5.021854   3.964724   0.000000
    24  H    4.622803   2.354627   4.346865   0.000000
    25  H    6.932660   4.666962   4.948332   2.437132   0.000000
    26  S    8.676317   6.617099   4.870892   4.902451   2.909733
    27  C    9.034806   6.992551   5.383378   5.332339   3.466055
    28  F    8.699346   6.573495   5.789072   4.739932   2.919539
    29  F   10.415475   8.368319   6.622826   6.638419   4.593692
    30  F    8.649596   6.809164   4.726439   5.560331   4.201169
    31  H    7.171394   5.618441   2.396650   4.950369   4.291627
    32  O    2.072998   3.024285   6.688768   4.900234   7.331535
    33  O    3.101507   2.077497   5.977261   2.964072   5.320746
    34  C    2.995901   2.903317   6.831952   4.180148   6.545091
    35  C    4.410357   4.342791   8.275532   5.211967   7.412629
    36  C    5.510496   4.832434   8.647545   4.981187   6.862636
    37  H    4.731612   4.922127   8.879961   5.871025   8.088974
    38  H    4.722964   4.919372   8.735272   5.938797   8.123843
    39  H    5.611920   4.681842   8.432163   4.529957   6.311884
    40  H    6.476182   5.934097   9.754651   6.037824   7.800050
    41  H    5.604085   4.679335   8.279521   4.619279   6.358525
                   26         27         28         29         30
    26  S    0.000000
    27  C    1.823068   0.000000
    28  F    2.641191   1.382398   0.000000
    29  F    2.614675   1.381391   2.246379   0.000000
    30  F    2.644945   1.382716   2.268784   2.244045   0.000000
    31  H    2.902780   3.583170   4.435932   4.614396   3.068523
    32  O    9.575985   9.816128   9.205989  11.174704   9.608426
    33  O    7.822031   8.036906   7.295531   9.354879   8.045849
    34  C    9.026271   9.216122   8.467307  10.538170   9.161589
    35  C   10.073242  10.182495   9.290899  11.450368  10.227177
    36  C    9.669354   9.716786   8.694358  10.900598   9.934997
    37  H   10.769249  11.016451  10.162967  12.292817  11.097996
    38  H   10.711798  10.667760   9.750146  11.927122  10.616471
    39  H    9.174114   9.392087   8.406486  10.563245   9.725353
    40  H   10.640048  10.641794   9.559334  11.781201  10.900197
    41  H    9.107892   8.980419   7.902079  10.135218   9.171050
                   31         32         33         34         35
    31  H    0.000000
    32  O    8.586962   0.000000
    33  O    7.389187   2.227843   0.000000
    34  C    8.441771   1.349109   1.225061   0.000000
    35  C    9.762119   2.461190   2.382541   1.505415   0.000000
    36  C    9.801948   3.782482   2.764129   2.532441   1.528540
    37  H   10.428514   2.748741   3.092536   2.137862   1.110886
    38  H   10.296762   2.746001   3.093327   2.137581   1.110921
    39  H    9.459005   4.081868   2.740713   2.804261   2.179815
    40  H   10.881615   4.615054   3.859859   3.481231   2.169222
    41  H    9.313912   4.079287   2.742224   2.803841   2.179495
                   36         37         38         39         40
    36  C    0.000000
    37  H    2.160542   0.000000
    38  H    2.159596   1.804952   0.000000
    39  H    1.110990   2.506189   3.089657   0.000000
    40  H    1.110415   2.484770   2.483873   1.804481   0.000000
    41  H    1.111067   3.090116   2.504102   1.812595   1.804280
                   41
    41  H    0.000000
 Stoichiometry    C14H18F3N2O3S(1-)
 Framework group  C1[X(C14H18F3N2O3S)]
 Deg. of freedom   117
 Full point group                 C1      NOp   1
 Largest Abelian subgroup         C1      NOp   1
 Largest concise Abelian subgroup C1      NOp   1
                         Standard orientation:                         
 ---------------------------------------------------------------------
 Center     Atomic      Atomic             Coordinates (Angstroms)
 Number     Number       Type             X           Y           Z
 ---------------------------------------------------------------------
      1          6           0        6.564944   -3.206077    0.456074
      2          6           0        5.602365   -2.034882    0.283265
      3          6           0        4.151360   -2.518352    0.186907
      4          7           0        3.237084   -1.401610    0.012138
      5          6           0        1.891497   -1.593416   -0.110272
      6          8           0        1.449290   -2.730169   -0.069758
      7          7           0        1.063734   -0.514340   -0.290421
      8          6           0       -0.370474   -0.527415   -0.450850
      9          6           0       -1.178677   -1.687867   -0.341272
     10          6           0       -1.016722    0.693595   -0.736807
     11          6           0       -2.400857    0.759500   -0.912871
     12          6           0       -3.177990   -0.393317   -0.801679
     13          6           0       -2.564561   -1.613657   -0.516143
     14          1           0        7.606062   -2.825505    0.521010
     15          1           0        6.492524   -3.896445   -0.411313
     16          1           0        6.331070   -3.764191    1.387595
     17          1           0        5.871248   -1.483313   -0.643971
     18          1           0        5.708863   -1.349695    1.152260
     19          1           0        3.885663   -3.068246    1.116684
     20          1           0        4.055632   -3.207172   -0.681429
     21          1           0        3.660821   -0.342991   -0.029536
     22          1           0        1.570919    0.512473   -0.333228
     23          1           0       -0.791314   -2.664505   -0.119436
     24          1           0       -0.451416    1.609816   -0.833499
     25          1           0       -2.867497    1.710456   -1.136867
     26         16           0       -4.956776   -0.312275   -1.036787
     27          6           0       -5.333467    0.107360    0.696876
     28          9           0       -4.808927    1.346676    1.013069
     29          9           0       -6.705523    0.153931    0.850290
     30          9           0       -4.828083   -0.858052    1.548033
     31          1           0       -3.163019   -2.512024   -0.428776
     32          8           0        4.351688    1.604363    0.137304
     33          8           0        2.308949    2.445788   -0.149935
     34          6           0        3.501540    2.647763    0.044251
     35          6           0        4.042585    4.045617    0.184060
     36          6           0        2.964760    5.122596    0.062235
     37          1           0        4.806689    4.211560   -0.605039
     38          1           0        4.531245    4.139449    1.177314
     39          1           0        2.473976    5.067085   -0.932927
     40          1           0        3.427445    6.125770    0.174428
     41          1           0        2.199328    4.993995    0.857248
 ---------------------------------------------------------------------
 Rotational constants (GHZ):      0.3025184      0.0865897      0.0704730
 General basis read from cards:  (6D, 7F)
 There are   477 symmetry adapted cartesian basis functions of A   symmetry.
 There are   477 symmetry adapted basis functions of A   symmetry.
   477 basis functions,   832 primitive gaussians,   477 cartesian basis functions
    92 alpha electrons       92 beta electrons
       nuclear repulsion energy      2018.9564422025 Hartrees.
 NAtoms=   41 NActive=   41 NUniq=   41 SFac= 1.00D+00 NAtFMM=   60 NAOKFM=F Big=F
 Integral buffers will be    131072 words long.
 Raffenetti 2 integral format.
 Two-electron integral symmetry is turned on.
 One-electron integrals computed using PRISM.
 NBasis=   477 RedAO= T EigKep=  1.03D-06  NBF=   477
 NBsUse=   477 1.00D-06 EigRej= -1.00D+00 NBFU=   477
 ExpMin= 4.05D-02 ExpMax= 2.19D+04 ExpMxC= 3.30D+03 IAcc=3 IRadAn=         5 AccDes= 0.00D+00
 Harris functional with IExCor= 1009 and IRadAn=       5 diagonalized for initial guess.
 HarFok:  IExCor= 1009 AccDes= 0.00D+00 IRadAn=         5 IDoV= 1 UseB2=F ITyADJ=14
 ICtDFT=  3500011 ScaDFX=  1.000000  1.000000  1.000000  1.000000
 FoFCou: FMM=F IPFlag=           0 FMFlag=      100000 FMFlg1=           0
         NFxFlg=           0 DoJE=T BraDBF=F KetDBF=T FulRan=T
         wScrn=  0.000000 ICntrl=     500 IOpCl=  0 I1Cent=   200000004 NGrid=           0
         NMat0=    1 NMatS0=      1 NMatT0=    0 NMatD0=    1 NMtDS0=    0 NMtDT0=    0
 Petite list used in FoFCou.
 Requested convergence on RMS density matrix=1.00D-08 within 128 cycles.
 Requested convergence on MAX density matrix=1.00D-06.
 Requested convergence on             energy=1.00D-06.
 No special actions if energy rises.
 SCF Done:  E(RM062X) =  -1576.86121826     A.U. after   16 cycles
            NFock= 16  Conv=0.26D-08     -V/T= 2.0076

 **********************************************************************

            Population analysis using the SCF density.

 **********************************************************************

 Orbital symmetries:
       Occupied  (A) (A) (A) (A) (A) (A) (A) (A) (A) (A) (A) (A)
                 (A) (A) (A) (A) (A) (A) (A) (A) (A) (A) (A) (A)
                 (A) (A) (A) (A) (A) (A) (A) (A) (A) (A) (A) (A)
                 (A) (A) (A) (A) (A) (A) (A) (A) (A) (A) (A) (A)
                 (A) (A) (A) (A) (A) (A) (A) (A) (A) (A) (A) (A)
                 (A) (A) (A) (A) (A) (A) (A) (A) (A) (A) (A) (A)
                 (A) (A) (A) (A) (A) (A) (A) (A) (A) (A) (A) (A)
                 (A) (A) (A) (A) (A) (A) (A) (A)
       Virtual   (A) (A) (A) (A) (A) (A) (A) (A) (A) (A) (A) (A)
                 (A) (A) (A) (A) (A) (A) (A) (A) (A) (A) (A) (A)
                 (A) (A) (A) (A) (A) (A) (A) (A) (A) (A) (A) (A)
                 (A) (A) (A) (A) (A) (A) (A) (A) (A) (A) (A) (A)
                 (A) (A) (A) (A) (A) (A) (A) (A) (A) (A) (A) (A)
                 (A) (A) (A) (A) (A) (A) (A) (A) (A) (A) (A) (A)
                 (A) (A) (A) (A) (A) (A) (A) (A) (A) (A) (A) (A)
                 (A) (A) (A) (A) (A) (A) (A) (A) (A) (A) (A) (A)
                 (A) (A) (A) (A) (A) (A) (A) (A) (A) (A) (A) (A)
                 (A) (A) (A) (A) (A) (A) (A) (A) (A) (A) (A) (A)
                 (A) (A) (A) (A) (A) (A) (A) (A) (A) (A) (A) (A)
                 (A) (A) (A) (A) (A) (A) (A) (A) (A) (A) (A) (A)
                 (A) (A) (A) (A) (A) (A) (A) (A) (A) (A) (A) (A)
                 (A) (A) (A) (A) (A) (A) (A) (A) (A) (A) (A) (A)
                 (A) (A) (A) (A) (A) (A) (A) (A) (A) (A) (A) (A)
                 (A) (A) (A) (A) (A) (A) (A) (A) (A) (A) (A) (A)
                 (A) (A) (A) (A) (A) (A) (A) (A) (A) (A) (A) (A)
                 (A) (A) (A) (A) (A) (A) (A) (A) (A) (A) (A) (A)
                 (A) (A) (A) (A) (A) (A) (A) (A) (A) (A) (A) (A)
                 (A) (A) (A) (A) (A) (A) (A) (A) (A) (A) (A) (A)
                 (A) (A) (A) (A) (A) (A) (A) (A) (A) (A) (A) (A)
                 (A) (A) (A) (A) (A) (A) (A) (A) (A) (A) (A) (A)
                 (A) (A) (A) (A) (A) (A) (A) (A) (A) (A) (A) (A)
                 (A) (A) (A) (A) (A) (A) (A) (A) (A) (A) (A) (A)
                 (A) (A) (A) (A) (A) (A) (A) (A) (A) (A) (A) (A)
                 (A) (A) (A) (A) (A) (A) (A) (A) (A) (A) (A) (A)
                 (A) (A) (A) (A) (A) (A) (A) (A) (A) (A) (A) (A)
                 (A) (A) (A) (A) (A) (A) (A) (A) (A) (A) (A) (A)
                 (A) (A) (A) (A) (A) (A) (A) (A) (A) (A) (A) (A)
                 (A) (A) (A) (A) (A) (A) (A) (A) (A) (A) (A) (A)
                 (A) (A) (A) (A) (A) (A) (A) (A) (A) (A) (A) (A)
                 (A) (A) (A) (A) (A) (A) (A) (A) (A) (A) (A) (A)
                 (A)
 The electronic state is 1-A.
 Alpha  occ. eigenvalues --  -89.87655 -25.24068 -25.23455 -25.23411 -19.48398
 Alpha  occ. eigenvalues --  -19.46424 -19.43564 -14.68845 -14.65959 -10.76239
 Alpha  occ. eigenvalues --  -10.55967 -10.52291 -10.50415 -10.50166 -10.48017
 Alpha  occ. eigenvalues --  -10.47861 -10.47828 -10.46708 -10.46223 -10.46007
 Alpha  occ. eigenvalues --  -10.45282 -10.43394 -10.43220  -8.22060  -6.14149
 Alpha  occ. eigenvalues --   -6.13887  -6.13440  -1.37460  -1.29914  -1.29605
 Alpha  occ. eigenvalues --   -1.05706  -1.01531  -0.92186  -0.89567  -0.88092
 Alpha  occ. eigenvalues --   -0.87517  -0.81994  -0.78274  -0.76158  -0.74970
 Alpha  occ. eigenvalues --   -0.74768  -0.69708  -0.66909  -0.61708  -0.61334
 Alpha  occ. eigenvalues --   -0.61010  -0.60736  -0.60123  -0.57451  -0.55471
 Alpha  occ. eigenvalues --   -0.54245  -0.50005  -0.49627  -0.49542  -0.48943
 Alpha  occ. eigenvalues --   -0.46669  -0.46372  -0.45731  -0.45332  -0.44564
 Alpha  occ. eigenvalues --   -0.44417  -0.43142  -0.42800  -0.41391  -0.40884
 Alpha  occ. eigenvalues --   -0.40670  -0.40446  -0.39257  -0.38252  -0.37808
 Alpha  occ. eigenvalues --   -0.36547  -0.35820  -0.35169  -0.34248  -0.32861
 Alpha  occ. eigenvalues --   -0.32647  -0.32593  -0.32411  -0.31952  -0.30291
 Alpha  occ. eigenvalues --   -0.30173  -0.29498  -0.28325  -0.26772  -0.24671
 Alpha  occ. eigenvalues --   -0.22377  -0.22043  -0.19584  -0.18578  -0.16935
 Alpha  occ. eigenvalues --   -0.16438  -0.15655
 Alpha virt. eigenvalues --    0.08459   0.08755   0.09909   0.10246   0.10474
 Alpha virt. eigenvalues --    0.10773   0.11316   0.11738   0.12386   0.12707
 Alpha virt. eigenvalues --    0.13040   0.13306   0.13551   0.14169   0.14363
 Alpha virt. eigenvalues --    0.14648   0.14876   0.15474   0.15651   0.16072
 Alpha virt. eigenvalues --    0.16342   0.16766   0.17409   0.17977   0.18137
 Alpha virt. eigenvalues --    0.18374   0.18755   0.18975   0.19553   0.19792
 Alpha virt. eigenvalues --    0.20158   0.20481   0.21103   0.21237   0.21384
 Alpha virt. eigenvalues --    0.21937   0.22052   0.22451   0.22946   0.23448
 Alpha virt. eigenvalues --    0.23833   0.24417   0.24590   0.25016   0.25292
 Alpha virt. eigenvalues --    0.25464   0.25839   0.26260   0.26666   0.27185
 Alpha virt. eigenvalues --    0.27550   0.27727   0.28499   0.28685   0.28781
 Alpha virt. eigenvalues --    0.29295   0.30038   0.30492   0.30806   0.31165
 Alpha virt. eigenvalues --    0.31527   0.31941   0.32280   0.32684   0.32887
 Alpha virt. eigenvalues --    0.33060   0.33538   0.33967   0.34312   0.34572
 Alpha virt. eigenvalues --    0.34601   0.35229   0.35394   0.35710   0.35922
 Alpha virt. eigenvalues --    0.36415   0.37018   0.37182   0.37729   0.38246
 Alpha virt. eigenvalues --    0.38469   0.38661   0.38956   0.39618   0.39669
 Alpha virt. eigenvalues --    0.39899   0.40277   0.40645   0.41235   0.41545
 Alpha virt. eigenvalues --    0.41997   0.42098   0.42804   0.42902   0.43012
 Alpha virt. eigenvalues --    0.43323   0.43598   0.44426   0.44664   0.45239
 Alpha virt. eigenvalues --    0.45411   0.45767   0.45987   0.46171   0.46387
 Alpha virt. eigenvalues --    0.47099   0.47360   0.47734   0.48368   0.48848
 Alpha virt. eigenvalues --    0.49310   0.49601   0.49778   0.50443   0.50675
 Alpha virt. eigenvalues --    0.52246   0.52616   0.52820   0.53298   0.54483
 Alpha virt. eigenvalues --    0.55215   0.55842   0.56607   0.57491   0.57958
 Alpha virt. eigenvalues --    0.58340   0.59426   0.60523   0.61198   0.62749
 Alpha virt. eigenvalues --    0.63841   0.64327   0.65663   0.66906   0.68163
 Alpha virt. eigenvalues --    0.68968   0.71507   0.72360   0.73829   0.74357
 Alpha virt. eigenvalues --    0.77801   0.78538   0.79655   0.80430   0.80989
 Alpha virt. eigenvalues --    0.81496   0.82656   0.83302   0.84363   0.84665
 Alpha virt. eigenvalues --    0.85312   0.86005   0.86415   0.86671   0.88290
 Alpha virt. eigenvalues --    0.88445   0.89680   0.90515   0.91572   0.92294
 Alpha virt. eigenvalues --    0.93118   0.93419   0.94780   0.95946   0.96186
 Alpha virt. eigenvalues --    0.97348   0.98268   0.98461   0.99832   0.99985
 Alpha virt. eigenvalues --    1.00690   1.02312   1.03018   1.04483   1.06505
 Alpha virt. eigenvalues --    1.06842   1.07126   1.07842   1.08078   1.09220
 Alpha virt. eigenvalues --    1.09881   1.10054   1.10208   1.10876   1.11880
 Alpha virt. eigenvalues --    1.12496   1.13212   1.15084   1.15671   1.16965
 Alpha virt. eigenvalues --    1.17532   1.18148   1.19253   1.19733   1.21509
 Alpha virt. eigenvalues --    1.22672   1.23298   1.24317   1.24527   1.25620
 Alpha virt. eigenvalues --    1.25846   1.26408   1.27317   1.29572   1.30024
 Alpha virt. eigenvalues --    1.31888   1.32952   1.34015   1.35330   1.37454
 Alpha virt. eigenvalues --    1.38073   1.38950   1.40065   1.40547   1.43014
 Alpha virt. eigenvalues --    1.43263   1.44948   1.45728   1.46499   1.47718
 Alpha virt. eigenvalues --    1.48994   1.50103   1.51343   1.51971   1.52631
 Alpha virt. eigenvalues --    1.53063   1.55489   1.56042   1.56534   1.57695
 Alpha virt. eigenvalues --    1.58605   1.59132   1.59814   1.60465   1.61371
 Alpha virt. eigenvalues --    1.62278   1.63254   1.64551   1.67070   1.67768
 Alpha virt. eigenvalues --    1.67918   1.68545   1.69462   1.70480   1.72354
 Alpha virt. eigenvalues --    1.72824   1.74191   1.75573   1.76686   1.76956
 Alpha virt. eigenvalues --    1.78765   1.78936   1.80793   1.81875   1.83012
 Alpha virt. eigenvalues --    1.83889   1.84234   1.86038   1.88502   1.89415
 Alpha virt. eigenvalues --    1.91751   1.94070   1.94688   1.95734   1.96500
 Alpha virt. eigenvalues --    1.97129   1.97228   1.97634   1.98337   1.98930
 Alpha virt. eigenvalues --    1.99596   2.00161   2.00503   2.00837   2.01384
 Alpha virt. eigenvalues --    2.03204   2.05186   2.05479   2.06449   2.07352
 Alpha virt. eigenvalues --    2.07849   2.09012   2.09332   2.09507   2.09714
 Alpha virt. eigenvalues --    2.10071   2.10468   2.12263   2.13951   2.14184
 Alpha virt. eigenvalues --    2.15729   2.16218   2.16434   2.16678   2.18393
 Alpha virt. eigenvalues --    2.19504   2.19899   2.20867   2.22855   2.22990
 Alpha virt. eigenvalues --    2.24214   2.25919   2.26101   2.27230   2.27834
 Alpha virt. eigenvalues --    2.28501   2.30459   2.31190   2.32380   2.34332
 Alpha virt. eigenvalues --    2.35724   2.36989   2.37712   2.38365   2.40343
 Alpha virt. eigenvalues --    2.42373   2.42772   2.43160   2.43296   2.43678
 Alpha virt. eigenvalues --    2.46213   2.47420   2.48499   2.49056   2.50125
 Alpha virt. eigenvalues --    2.51091   2.53141   2.59927   2.67844   2.68269
 Alpha virt. eigenvalues --    2.68830   2.69561   2.70907   2.73506   2.75280
 Alpha virt. eigenvalues --    2.76137   2.77266   2.77578   2.79579   2.83090
 Alpha virt. eigenvalues --    2.85191   2.85614   2.86173   2.89108   2.89703
 Alpha virt. eigenvalues --    2.90341   2.90928   2.92585   3.00916   3.01594
 Alpha virt. eigenvalues --    3.10355   3.15675   3.18131   3.20794   3.24196
 Alpha virt. eigenvalues --    3.24752   3.30230   3.33108   3.34224   3.39136
 Alpha virt. eigenvalues --    3.42832   3.50410   4.10219   4.31182   4.34364
 Alpha virt. eigenvalues --    4.37261   4.39736   4.42731   4.46784   4.50202
 Alpha virt. eigenvalues --    4.52296   4.54547   4.55184   4.57000   4.60024
 Alpha virt. eigenvalues --    4.62816   4.65129   4.70280   4.75825   4.83298
 Alpha virt. eigenvalues --    4.85722   4.90178   5.63919   5.75514   6.35922
          Condensed to atoms (all electrons):
               1          2          3          4          5          6
     1  C    5.874376  -0.259641   0.063669  -0.017207  -0.077081  -0.000749
     2  C   -0.259641   6.441356  -0.558876  -0.064748   0.207891   0.024462
     3  C    0.063669  -0.558876   7.387719   0.360804  -0.832738  -0.101553
     4  N   -0.017207  -0.064748   0.360804   7.738654   0.543708  -0.190585
     5  C   -0.077081   0.207891  -0.832738   0.543708   7.261405   0.626331
     6  O   -0.000749   0.024462  -0.101553  -0.190585   0.626331   8.339560
     7  N   -0.006317   0.019052  -0.243143  -0.382025   0.181053  -0.071244
     8  C   -0.010726   0.030182  -0.431030  -0.250380  -1.006804  -0.480997
     9  C   -0.002681  -0.009260  -0.059825   0.043710   0.891808   0.367070
    10  C   -0.001800   0.010553  -0.109850  -0.130096  -1.394220  -0.173347
    11  C    0.000059   0.000063   0.011681  -0.002243   0.377118   0.004729
    12  C   -0.000240   0.000880  -0.028558  -0.012722  -0.467064   0.005788
    13  C   -0.001096  -0.002208  -0.074285   0.000709  -0.810723   0.271571
    14  H    0.458601  -0.138645   0.032074   0.000213  -0.002091   0.000004
    15  H    0.426244  -0.072500  -0.008360  -0.000322  -0.001439  -0.000044
    16  H    0.418395  -0.068268  -0.003874  -0.000214  -0.002215  -0.000043
    17  H   -0.043346   0.420677  -0.055101   0.003989  -0.012392  -0.000220
    18  H   -0.035606   0.424140  -0.070256   0.004062  -0.005929  -0.000158
    19  H   -0.011963  -0.052479   0.450672  -0.058767  -0.022197   0.001134
    20  H   -0.004732  -0.063577   0.462069  -0.061172  -0.028580   0.000615
    21  H    0.001412  -0.000139  -0.061721   0.167349   0.026978   0.004251
    22  H    0.000190   0.000548   0.006562   0.029789  -0.015965   0.004011
    23  H    0.000004   0.000033   0.001076  -0.000257   0.006478  -0.005710
    24  H   -0.000001   0.000015  -0.000223   0.000702  -0.001295   0.000071
    25  H    0.000000   0.000000   0.000024  -0.000003   0.003477  -0.000002
    26  S   -0.000008   0.000022  -0.001576  -0.000445  -0.060165   0.000646
    27  C    0.000001  -0.000003   0.000172   0.000061   0.009815  -0.000021
    28  F   -0.000000   0.000000  -0.000003   0.000000  -0.000585   0.000000
    29  F    0.000000  -0.000000  -0.000000   0.000000  -0.000015   0.000000
    30  F   -0.000000   0.000000  -0.000010  -0.000002  -0.001712  -0.000004
    31  H   -0.000000   0.000002   0.000032   0.000008   0.001917   0.000274
    32  O    0.007016   0.016021  -0.023058  -0.036280   0.004107  -0.000188
    33  O   -0.000031  -0.001022   0.009160   0.009448   0.024244  -0.000062
    34  C   -0.002910  -0.003256   0.000562  -0.006379  -0.015608  -0.000847
    35  C    0.002802  -0.000544   0.018347  -0.010550  -0.017029  -0.000647
    36  C   -0.000331  -0.000315  -0.001364   0.002255   0.002510   0.000041
    37  H    0.000002  -0.000008   0.000022  -0.000051  -0.000049  -0.000000
    38  H    0.000004   0.000001   0.000015  -0.000052  -0.000131  -0.000000
    39  H    0.000000   0.000006  -0.000011  -0.000001  -0.000114  -0.000000
    40  H    0.000000   0.000003  -0.000003  -0.000002   0.000015   0.000000
    41  H    0.000000   0.000006  -0.000005  -0.000002  -0.000025  -0.000000
               7          8          9         10         11         12
     1  C   -0.006317  -0.010726  -0.002681  -0.001800   0.000059  -0.000240
     2  C    0.019052   0.030182  -0.009260   0.010553   0.000063   0.000880
     3  C   -0.243143  -0.431030  -0.059825  -0.109850   0.011681  -0.028558
     4  N   -0.382025  -0.250380   0.043710  -0.130096  -0.002243  -0.012722
     5  C    0.181053  -1.006804   0.891808  -1.394220   0.377118  -0.467064
     6  O   -0.071244  -0.480997   0.367070  -0.173347   0.004729   0.005788
     7  N    7.855079   0.275801   0.001978  -0.026799   0.026037  -0.038939
     8  C    0.275801  11.872366  -1.521298  -0.781397   1.202230  -1.799049
     9  C    0.001978  -1.521298  22.053781  -1.545009  -3.183665   0.646439
    10  C   -0.026799  -0.781397  -1.545009  18.499058  -7.361510   2.507801
    11  C    0.026037   1.202230  -3.183665  -7.361510  15.197766  -2.377957
    12  C   -0.038939  -1.799049   0.646439   2.507801  -2.377957   8.958354
    13  C   -0.091844  -1.149673 -11.237957  -3.005113   1.864850  -0.779283
    14  H    0.000006  -0.000037   0.000001  -0.000002  -0.000000  -0.000000
    15  H    0.000002  -0.000009  -0.000028  -0.000003  -0.000000   0.000000
    16  H   -0.000002  -0.000022  -0.000042   0.000004   0.000000  -0.000000
    17  H   -0.000569  -0.000631  -0.000366   0.000223   0.000006  -0.000001
    18  H   -0.000198  -0.000544  -0.000098   0.000071   0.000002  -0.000001
    19  H   -0.000547  -0.003383   0.000433   0.000324   0.000063  -0.000004
    20  H    0.000077   0.002613  -0.003976   0.000152  -0.000023  -0.000027
    21  H    0.030379   0.013404  -0.003412   0.004870   0.000349  -0.000044
    22  H    0.161316   0.017964   0.035795  -0.090377   0.013341  -0.000785
    23  H   -0.013375   0.034691   0.260817   0.050374  -0.029453   0.031341
    24  H   -0.005142   0.047881   0.057086   0.215465  -0.004125   0.029216
    25  H    0.000184   0.042156  -0.051746  -0.140518   0.385899   0.009505
    26  S   -0.004838  -0.192589  -1.096253  -0.153918   0.201896  -0.545188
    27  C    0.001071   0.072369   0.192153  -0.004092   0.097447  -0.123124
    28  F    0.000001  -0.014889   0.011751   0.025736   0.041492   0.006776
    29  F    0.000003  -0.003186   0.004991   0.005379  -0.009030   0.021418
    30  F   -0.000063  -0.020393  -0.055219   0.039707  -0.117097   0.049121
    31  H   -0.000800   0.027345  -0.032496  -0.059246   0.068866   0.019318
    32  O    0.016185  -0.006059  -0.007983   0.011565  -0.001278  -0.000293
    33  O   -0.012281  -0.116230  -0.003578   0.054327   0.045929  -0.000986
    34  C   -0.001930   0.007891  -0.008725   0.020430  -0.023151   0.001913
    35  C   -0.019396   0.016801   0.002630  -0.020782  -0.006513  -0.001707
    36  C    0.002828  -0.017886  -0.001414   0.009830   0.008750   0.000909
    37  H    0.000065  -0.000561  -0.000038   0.000492   0.000066  -0.000000
    38  H    0.000058  -0.000276  -0.000047   0.000275  -0.000016   0.000001
    39  H   -0.000023  -0.000716  -0.000031   0.000575  -0.000120   0.000045
    40  H    0.000007   0.000092   0.000004  -0.000084  -0.000034  -0.000001
    41  H   -0.000009  -0.000955  -0.000048   0.000518   0.000393   0.000021
              13         14         15         16         17         18
     1  C   -0.001096   0.458601   0.426244   0.418395  -0.043346  -0.035606
     2  C   -0.002208  -0.138645  -0.072500  -0.068268   0.420677   0.424140
     3  C   -0.074285   0.032074  -0.008360  -0.003874  -0.055101  -0.070256
     4  N    0.000709   0.000213  -0.000322  -0.000214   0.003989   0.004062
     5  C   -0.810723  -0.002091  -0.001439  -0.002215  -0.012392  -0.005929
     6  O    0.271571   0.000004  -0.000044  -0.000043  -0.000220  -0.000158
     7  N   -0.091844   0.000006   0.000002  -0.000002  -0.000569  -0.000198
     8  C   -1.149673  -0.000037  -0.000009  -0.000022  -0.000631  -0.000544
     9  C  -11.237957   0.000001  -0.000028  -0.000042  -0.000366  -0.000098
    10  C   -3.005113  -0.000002  -0.000003   0.000004   0.000223   0.000071
    11  C    1.864850  -0.000000  -0.000000   0.000000   0.000006   0.000002
    12  C   -0.779283  -0.000000   0.000000  -0.000000  -0.000001  -0.000001
    13  C   20.389333   0.000000  -0.000003  -0.000003  -0.000022  -0.000007
    14  H    0.000000   0.511938  -0.026542  -0.026197  -0.003350  -0.003276
    15  H   -0.000003  -0.026542   0.515280  -0.030820  -0.004695   0.003910
    16  H   -0.000003  -0.026197  -0.030820   0.513931   0.004005  -0.004564
    17  H   -0.000022  -0.003350  -0.004695   0.004005   0.491858  -0.026478
    18  H   -0.000007  -0.003276   0.003910  -0.004564  -0.026478   0.479595
    19  H    0.000392  -0.000073  -0.000347   0.002981   0.004025  -0.005340
    20  H   -0.000959  -0.000070   0.003150  -0.000411  -0.005602   0.004019
    21  H   -0.000021  -0.000000  -0.000000  -0.000001   0.000513   0.000621
    22  H    0.017827  -0.000000  -0.000000   0.000000   0.000002   0.000002
    23  H   -0.030857   0.000000  -0.000000  -0.000000  -0.000000  -0.000000
    24  H   -0.039397   0.000000  -0.000000  -0.000000  -0.000000  -0.000000
    25  H    0.063957  -0.000000   0.000000   0.000000   0.000000  -0.000000
    26  S    0.896954  -0.000000  -0.000000  -0.000000  -0.000000  -0.000000
    27  C   -0.080655   0.000000   0.000000   0.000000   0.000000   0.000000
    28  F   -0.070614   0.000000   0.000000  -0.000000   0.000000   0.000000
    29  F   -0.004852   0.000000   0.000000   0.000000   0.000000  -0.000000
    30  F    0.105080   0.000000   0.000000   0.000000   0.000000   0.000000
    31  H    0.288526  -0.000000   0.000000   0.000000   0.000000   0.000000
    32  O    0.001869  -0.000017  -0.000009  -0.000003  -0.001009  -0.001577
    33  O   -0.002124  -0.000000   0.000000   0.000000  -0.000009  -0.000018
    34  C   -0.001766  -0.000052  -0.000006   0.000009   0.000339  -0.000170
    35  C   -0.000575   0.000023  -0.000001  -0.000001   0.000118   0.000028
    36  C   -0.001143  -0.000000   0.000000   0.000000  -0.000007  -0.000006
    37  H    0.000001  -0.000000  -0.000000   0.000000   0.000000   0.000000
    38  H   -0.000001  -0.000000  -0.000000   0.000000   0.000000  -0.000000
    39  H   -0.000010   0.000000  -0.000000  -0.000000  -0.000000  -0.000000
    40  H    0.000001   0.000000  -0.000000  -0.000000  -0.000000  -0.000000
    41  H   -0.000001   0.000000  -0.000000  -0.000000  -0.000000  -0.000000
              19         20         21         22         23         24
     1  C   -0.011963  -0.004732   0.001412   0.000190   0.000004  -0.000001
     2  C   -0.052479  -0.063577  -0.000139   0.000548   0.000033   0.000015
     3  C    0.450672   0.462069  -0.061721   0.006562   0.001076  -0.000223
     4  N   -0.058767  -0.061172   0.167349   0.029789  -0.000257   0.000702
     5  C   -0.022197  -0.028580   0.026978  -0.015965   0.006478  -0.001295
     6  O    0.001134   0.000615   0.004251   0.004011  -0.005710   0.000071
     7  N   -0.000547   0.000077   0.030379   0.161316  -0.013375  -0.005142
     8  C   -0.003383   0.002613   0.013404   0.017964   0.034691   0.047881
     9  C    0.000433  -0.003976  -0.003412   0.035795   0.260817   0.057086
    10  C    0.000324   0.000152   0.004870  -0.090377   0.050374   0.215465
    11  C    0.000063  -0.000023   0.000349   0.013341  -0.029453  -0.004125
    12  C   -0.000004  -0.000027  -0.000044  -0.000785   0.031341   0.029216
    13  C    0.000392  -0.000959  -0.000021   0.017827  -0.030857  -0.039397
    14  H   -0.000073  -0.000070  -0.000000  -0.000000   0.000000   0.000000
    15  H   -0.000347   0.003150  -0.000000  -0.000000  -0.000000  -0.000000
    16  H    0.002981  -0.000411  -0.000001   0.000000  -0.000000  -0.000000
    17  H    0.004025  -0.005602   0.000513   0.000002  -0.000000  -0.000000
    18  H   -0.005340   0.004019   0.000621   0.000002  -0.000000  -0.000000
    19  H    0.531597  -0.043386   0.001609   0.000006  -0.000000  -0.000000
    20  H   -0.043386   0.535429   0.001621   0.000004  -0.000001   0.000000
    21  H    0.001609   0.001621   0.253855   0.004605   0.000001   0.000004
    22  H    0.000006   0.000004   0.004605   0.260688  -0.000085   0.004906
    23  H   -0.000000  -0.000001   0.000001  -0.000085   0.436053  -0.000100
    24  H   -0.000000   0.000000   0.000004   0.004906  -0.000100   0.447901
    25  H    0.000000  -0.000000   0.000000  -0.000009   0.000012  -0.004252
    26  S    0.000001  -0.000001  -0.000003   0.000321  -0.000898   0.000066
    27  C    0.000000   0.000000  -0.000000  -0.000023  -0.000357  -0.000175
    28  F    0.000000  -0.000000   0.000000  -0.000000  -0.000001  -0.000002
    29  F    0.000000  -0.000000   0.000000  -0.000000  -0.000000  -0.000001
    30  F    0.000000  -0.000000   0.000000  -0.000000   0.000008  -0.000005
    31  H    0.000000  -0.000000  -0.000000   0.000001  -0.004906   0.000013
    32  O   -0.000031  -0.000084   0.054947   0.001417   0.000001  -0.000025
    33  O   -0.000005  -0.000002  -0.000794   0.047205   0.000007  -0.002625
    34  C    0.000271   0.000273  -0.005099  -0.005559  -0.000016  -0.000280
    35  C    0.000012   0.000025   0.006698   0.008662  -0.000002   0.001681
    36  C   -0.000000   0.000002  -0.001274  -0.001152  -0.000000  -0.000116
    37  H   -0.000000  -0.000000  -0.000001  -0.000008   0.000000  -0.000000
    38  H   -0.000000  -0.000000  -0.000001  -0.000007   0.000000   0.000000
    39  H   -0.000000   0.000000   0.000000  -0.000003   0.000000   0.000001
    40  H   -0.000000  -0.000000   0.000000   0.000000  -0.000000   0.000000
    41  H    0.000000  -0.000000   0.000000  -0.000003   0.000000  -0.000001
              25         26         27         28         29         30
     1  C    0.000000  -0.000008   0.000001  -0.000000   0.000000  -0.000000
     2  C    0.000000   0.000022  -0.000003   0.000000  -0.000000   0.000000
     3  C    0.000024  -0.001576   0.000172  -0.000003  -0.000000  -0.000010
     4  N   -0.000003  -0.000445   0.000061   0.000000   0.000000  -0.000002
     5  C    0.003477  -0.060165   0.009815  -0.000585  -0.000015  -0.001712
     6  O   -0.000002   0.000646  -0.000021   0.000000   0.000000  -0.000004
     7  N    0.000184  -0.004838   0.001071   0.000001   0.000003  -0.000063
     8  C    0.042156  -0.192589   0.072369  -0.014889  -0.003186  -0.020393
     9  C   -0.051746  -1.096253   0.192153   0.011751   0.004991  -0.055219
    10  C   -0.140518  -0.153918  -0.004092   0.025736   0.005379   0.039707
    11  C    0.385899   0.201896   0.097447   0.041492  -0.009030  -0.117097
    12  C    0.009505  -0.545188  -0.123124   0.006776   0.021418   0.049121
    13  C    0.063957   0.896954  -0.080655  -0.070614  -0.004852   0.105080
    14  H   -0.000000  -0.000000   0.000000   0.000000   0.000000   0.000000
    15  H    0.000000  -0.000000   0.000000   0.000000   0.000000   0.000000
    16  H    0.000000  -0.000000   0.000000  -0.000000   0.000000   0.000000
    17  H    0.000000  -0.000000   0.000000   0.000000   0.000000   0.000000
    18  H   -0.000000  -0.000000   0.000000   0.000000  -0.000000   0.000000
    19  H    0.000000   0.000001   0.000000   0.000000   0.000000   0.000000
    20  H   -0.000000  -0.000001   0.000000  -0.000000  -0.000000  -0.000000
    21  H    0.000000  -0.000003  -0.000000   0.000000   0.000000   0.000000
    22  H   -0.000009   0.000321  -0.000023  -0.000000  -0.000000  -0.000000
    23  H    0.000012  -0.000898  -0.000357  -0.000001  -0.000000   0.000008
    24  H   -0.004252   0.000066  -0.000175  -0.000002  -0.000001  -0.000005
    25  H    0.486065  -0.008274  -0.001534  -0.000441  -0.000085   0.000072
    26  S   -0.008274  16.678599   0.062850  -0.069553  -0.087061  -0.064875
    27  C   -0.001534   0.062850   4.788062   0.141884   0.149247   0.143791
    28  F   -0.000441  -0.069553   0.141884   9.288801  -0.032640  -0.049189
    29  F   -0.000085  -0.087061   0.149247  -0.032640   9.288503  -0.031166
    30  F    0.000072  -0.064875   0.143791  -0.049189  -0.031166   9.275510
    31  H   -0.000158  -0.010476   0.000023   0.000025  -0.000066  -0.000867
    32  O    0.000000  -0.000009   0.000000   0.000000   0.000000  -0.000000
    33  O    0.000003  -0.000025   0.000005   0.000000   0.000000   0.000000
    34  C   -0.000023  -0.000182   0.000024   0.000001   0.000000   0.000001
    35  C   -0.000011  -0.000097   0.000019  -0.000001  -0.000000  -0.000000
    36  C   -0.000004   0.000019  -0.000003   0.000000   0.000000   0.000000
    37  H   -0.000000   0.000000   0.000000   0.000000  -0.000000   0.000000
    38  H    0.000000  -0.000000   0.000000   0.000000   0.000000  -0.000000
    39  H    0.000000  -0.000000   0.000000   0.000000   0.000000  -0.000000
    40  H   -0.000000  -0.000000  -0.000000  -0.000000   0.000000   0.000000
    41  H    0.000000   0.000000  -0.000000  -0.000000  -0.000000  -0.000000
              31         32         33         34         35         36
     1  C   -0.000000   0.007016  -0.000031  -0.002910   0.002802  -0.000331
     2  C    0.000002   0.016021  -0.001022  -0.003256  -0.000544  -0.000315
     3  C    0.000032  -0.023058   0.009160   0.000562   0.018347  -0.001364
     4  N    0.000008  -0.036280   0.009448  -0.006379  -0.010550   0.002255
     5  C    0.001917   0.004107   0.024244  -0.015608  -0.017029   0.002510
     6  O    0.000274  -0.000188  -0.000062  -0.000847  -0.000647   0.000041
     7  N   -0.000800   0.016185  -0.012281  -0.001930  -0.019396   0.002828
     8  C    0.027345  -0.006059  -0.116230   0.007891   0.016801  -0.017886
     9  C   -0.032496  -0.007983  -0.003578  -0.008725   0.002630  -0.001414
    10  C   -0.059246   0.011565   0.054327   0.020430  -0.020782   0.009830
    11  C    0.068866  -0.001278   0.045929  -0.023151  -0.006513   0.008750
    12  C    0.019318  -0.000293  -0.000986   0.001913  -0.001707   0.000909
    13  C    0.288526   0.001869  -0.002124  -0.001766  -0.000575  -0.001143
    14  H   -0.000000  -0.000017  -0.000000  -0.000052   0.000023  -0.000000
    15  H    0.000000  -0.000009   0.000000  -0.000006  -0.000001   0.000000
    16  H    0.000000  -0.000003   0.000000   0.000009  -0.000001   0.000000
    17  H    0.000000  -0.001009  -0.000009   0.000339   0.000118  -0.000007
    18  H    0.000000  -0.001577  -0.000018  -0.000170   0.000028  -0.000006
    19  H    0.000000  -0.000031  -0.000005   0.000271   0.000012  -0.000000
    20  H   -0.000000  -0.000084  -0.000002   0.000273   0.000025   0.000002
    21  H   -0.000000   0.054947  -0.000794  -0.005099   0.006698  -0.001274
    22  H    0.000001   0.001417   0.047205  -0.005559   0.008662  -0.001152
    23  H   -0.004906   0.000001   0.000007  -0.000016  -0.000002  -0.000000
    24  H    0.000013  -0.000025  -0.002625  -0.000280   0.001681  -0.000116
    25  H   -0.000158   0.000000   0.000003  -0.000023  -0.000011  -0.000004
    26  S   -0.010476  -0.000009  -0.000025  -0.000182  -0.000097   0.000019
    27  C    0.000023   0.000000   0.000005   0.000024   0.000019  -0.000003
    28  F    0.000025   0.000000   0.000000   0.000001  -0.000001   0.000000
    29  F   -0.000066   0.000000   0.000000   0.000000  -0.000000   0.000000
    30  F   -0.000867  -0.000000   0.000000   0.000001  -0.000000   0.000000
    31  H    0.491586  -0.000000  -0.000000  -0.000001  -0.000000   0.000000
    32  O   -0.000000   8.599383  -0.195055   0.530141  -0.279396   0.025959
    33  O   -0.000000  -0.195055   8.579955   0.306820  -0.183334   0.064875
    34  C   -0.000001   0.530141   0.306820   5.471287  -0.725765  -0.013127
    35  C   -0.000000  -0.279396  -0.183334  -0.725765   7.279804  -0.307377
    36  C    0.000000   0.025959   0.064875  -0.013127  -0.307377   5.823961
    37  H    0.000000  -0.002986   0.001804  -0.068160   0.441524  -0.057920
    38  H    0.000000  -0.002544   0.001403  -0.064306   0.434663  -0.054814
    39  H   -0.000000  -0.000038  -0.005847  -0.006268  -0.047408   0.408775
    40  H    0.000000  -0.000114   0.002043   0.038195  -0.095793   0.393146
    41  H   -0.000000  -0.000072  -0.005521  -0.010161  -0.040863   0.405699
              37         38         39         40         41
     1  C    0.000002   0.000004   0.000000   0.000000   0.000000
     2  C   -0.000008   0.000001   0.000006   0.000003   0.000006
     3  C    0.000022   0.000015  -0.000011  -0.000003  -0.000005
     4  N   -0.000051  -0.000052  -0.000001  -0.000002  -0.000002
     5  C   -0.000049  -0.000131  -0.000114   0.000015  -0.000025
     6  O   -0.000000  -0.000000  -0.000000   0.000000  -0.000000
     7  N    0.000065   0.000058  -0.000023   0.000007  -0.000009
     8  C   -0.000561  -0.000276  -0.000716   0.000092  -0.000955
     9  C   -0.000038  -0.000047  -0.000031   0.000004  -0.000048
    10  C    0.000492   0.000275   0.000575  -0.000084   0.000518
    11  C    0.000066  -0.000016  -0.000120  -0.000034   0.000393
    12  C   -0.000000   0.000001   0.000045  -0.000001   0.000021
    13  C    0.000001  -0.000001  -0.000010   0.000001  -0.000001
    14  H   -0.000000  -0.000000   0.000000   0.000000   0.000000
    15  H   -0.000000  -0.000000  -0.000000  -0.000000  -0.000000
    16  H    0.000000   0.000000  -0.000000  -0.000000  -0.000000
    17  H    0.000000   0.000000  -0.000000  -0.000000  -0.000000
    18  H    0.000000  -0.000000  -0.000000  -0.000000  -0.000000
    19  H   -0.000000  -0.000000  -0.000000  -0.000000   0.000000
    20  H   -0.000000  -0.000000   0.000000  -0.000000  -0.000000
    21  H   -0.000001  -0.000001   0.000000   0.000000   0.000000
    22  H   -0.000008  -0.000007  -0.000003   0.000000  -0.000003
    23  H    0.000000   0.000000   0.000000  -0.000000   0.000000
    24  H   -0.000000   0.000000   0.000001   0.000000  -0.000001
    25  H   -0.000000   0.000000   0.000000  -0.000000   0.000000
    26  S    0.000000  -0.000000  -0.000000  -0.000000   0.000000
    27  C    0.000000   0.000000   0.000000  -0.000000  -0.000000
    28  F    0.000000   0.000000   0.000000  -0.000000  -0.000000
    29  F   -0.000000   0.000000   0.000000   0.000000  -0.000000
    30  F    0.000000  -0.000000  -0.000000   0.000000  -0.000000
    31  H    0.000000   0.000000  -0.000000   0.000000  -0.000000
    32  O   -0.002986  -0.002544  -0.000038  -0.000114  -0.000072
    33  O    0.001804   0.001403  -0.005847   0.002043  -0.005521
    34  C   -0.068160  -0.064306  -0.006268   0.038195  -0.010161
    35  C    0.441524   0.434663  -0.047408  -0.095793  -0.040863
    36  C   -0.057920  -0.054814   0.408775   0.393146   0.405699
    37  H    0.501949  -0.024446  -0.003975  -0.002441   0.003708
    38  H   -0.024446   0.501280   0.003736  -0.002481  -0.004033
    39  H   -0.003975   0.003736   0.494405  -0.030151  -0.023204
    40  H   -0.002441  -0.002481  -0.030151   0.558229  -0.029877
    41  H    0.003708  -0.004033  -0.023204  -0.029877   0.491626
 Mulliken charges:
               1
     1  C   -0.776309
     2  C   -0.300425
     3  C   -0.139238
     4  N   -0.680959
     5  C    0.607310
     6  O   -0.624135
     7  N   -0.651697
     8  C    0.145933
     9  C    0.254750
    10  C   -0.459565
    11  C   -0.432817
    12  C   -0.112872
    13  C   -0.515876
    14  H    0.197492
    15  H    0.196545
    16  H    0.197357
    17  H    0.228043
    18  H    0.237779
    19  H    0.205002
    20  H    0.202555
    21  H    0.499043
    22  H    0.498814
    23  H    0.265124
    24  H    0.252756
    25  H    0.215705
    26  S    0.455061
    27  C    0.550994
    28  F   -0.278550
    29  F   -0.301437
    30  F   -0.272689
    31  H    0.211083
    32  O   -0.710503
    33  O   -0.617676
    34  C    0.585589
    35  C   -0.456045
    36  C   -0.691306
    37  H    0.211013
    38  H    0.211720
    39  H    0.210376
    40  H    0.169246
    41  H    0.212810
 Sum of Mulliken charges =  -1.00000
 Mulliken charges with hydrogens summed into heavy atoms:
               1
     1  C   -0.184915
     2  C    0.165397
     3  C    0.268319
     4  N   -0.181916
     5  C    0.607310
     6  O   -0.624135
     7  N   -0.152883
     8  C    0.145933
     9  C    0.519875
    10  C   -0.206809
    11  C   -0.217113
    12  C   -0.112872
    13  C   -0.304793
    26  S    0.455061
    27  C    0.550994
    28  F   -0.278550
    29  F   -0.301437
    30  F   -0.272689
    32  O   -0.710503
    33  O   -0.617676
    34  C    0.585589
    35  C   -0.033312
    36  C   -0.098874
 Electronic spatial extent (au):  <R**2>=          14341.9811
 Charge=             -1.0000 electrons
 Dipole moment (field-independent basis, Debye):
    X=             -6.3913    Y=             -1.6033    Z=             -0.6353  Tot=              6.6199
 Quadrupole moment (field-independent basis, Debye-Ang):
   XX=           -218.3739   YY=           -172.7612   ZZ=           -149.9227
[...]
 0000137,-0.00000761,0.00002769,0.00002312,0.00001669,-0.00000691,-0.00
 000847,-0.00000031,-0.00002732,-0.00000944,-0.00000932,-0.00000391,-0.
 00000819,-0.00000718,-0.00000251,-0.00000389,0.00000020,0.00161770,-0.
 00063684,0.00067645,0.00086298,0.00008153,-0.00069249,0.00034438,0.003
 84432,0.00233309,-0.11512142,-0.06616226,-0.18867265,0.00254422,0.0014
 6137,0.00267194,0.12674236,0.07101220,0.20378711,0.00000643,0.00000796
 ,0.00000107,-0.00000765,-0.00001657,-0.00000271,0.00001396,-0.00000609
 ,0.00000966,0.00010168,0.00009597,-0.00000900,-0.00024885,-0.00001835,
 0.00003411,0.00006044,0.00001055,-0.00001535,0.00010044,-0.00019279,0.
 00000984,-0.00005389,-0.00003607,0.00000988,0.00001196,0.00000760,-0.0
 0000432,0.00002228,0.00001875,-0.00001713,-0.00000735,-0.00000164,-0.0
 0000446,0.00001657,-0.00000710,-0.00000350,-0.00001698,-0.00000863,0.0
 0000235,-0.00000426,-0.00000040,0.00000067,-0.00000237,0.00000077,-0.0
 0000194,-0.00000234,0.00000003,0.00000093,0.00001144,0.00000211,-0.000
 00041,0.00001038,0.00000558,-0.00000087,-0.00000076,0.00000102,0.00000
 254,-0.00000007,0.00000032,-0.00000449,-0.00003662,-0.00017926,-0.0000
 3281,-0.00002509,0.00025983,-0.00004868,-0.00000589,-0.00000420,0.0000
 0298,0.00000732,0.00003244,0.00002276,0.00001021,0.00000500,0.00000549
 ,-0.00000352,-0.00000405,-0.00000354,0.00000551,0.00001188,0.00003575,
 -0.00000098,0.00000041,-0.00001133,-0.00000595,-0.00000339,-0.00000784
 ,0.00000302,-0.00000984,-0.00001485,-0.00000083,-0.00000215,0.00000141
 ,0.00003889,0.00158564,-0.00075435,0.00035851,-0.00193473,-0.00079938,
 -0.00340351,-0.00130835,0.00307766,-0.10037511,-0.02588379,0.10466962,
 -0.01359678,-0.00670451,0.02616376,0.00903373,0.00513919,-0.01730359,0
 .11128816,0.00000313,0.00000503,-0.00000518,0.00001306,-0.00001960,0.0
 0002411,-0.00006676,0.00003728,0.00000532,0.00010843,0.00004631,0.0000
 3070,-0.00031898,0.00011620,0.00004517,0.00009231,-0.00014509,-0.00002
 214,-0.00002664,-0.00064930,0.00016182,0.00026959,0.00001185,-0.000028
 87,-0.00006350,-0.00004112,0.00000236,-0.00008799,0.00007897,0.0000066
 8,0.00004288,-0.00000315,-0.00000164,-0.00004404,-0.00002279,0.0000144
 7,0.00001721,-0.00001709,0.00000006,0.00001127,0.00000062,0.00000231,-
 0.00000262,0.00000272,-0.00000367,0.00000119,-0.00000457,0.00000040,-0
 .00000937,0.00000382,-0.00000455,-0.00000578,-0.00000446,-0.00000501,0
 .00000801,-0.00001163,-0.00000304,0.00001759,-0.00000499,0.00000057,-0
 .00006558,0.00003161,-0.00013194,-0.00000716,0.00102348,-0.00032573,0.
 00000253,0.00000054,0.00000125,0.00008546,0.00000759,-0.00000682,-0.00
 000965,0.00000179,0.00000169,0.00001920,0.00000192,-0.00001228,0.00002
 171,-0.00000221,0.00005388,-0.00000531,0.00001058,-0.00002146,-0.00002
 751,-0.00000591,-0.00001790,-0.00000331,-0.00000516,-0.00001553,-0.000
 00577,-0.00000512,0.00000270,0.00117230,0.00018603,-0.00434149,-0.0018
 8342,-0.00645620,-0.00348506,-0.01522742,-0.00449460,0.03331304,-0.025
 92360,-0.05900756,0.05554581,0.00779374,0.00313336,-0.01462271,0.00562
 595,0.00254968,-0.01064220,0.02673132,0.06409295,0.00000228,0.00000207
 ,0.00000574,-0.00001458,0.00000753,-0.00002688,0.00008615,-0.00003162,
 -0.00001167,-0.00008115,0.00005855,0.00002477,0.00018201,-0.00009500,-
 0.00002022,-0.00005410,0.00009839,0.00000360,-0.00000827,0.00025420,0.
 00000465,-0.00009404,0.00000364,0.00000931,0.00002200,0.00001888,-0.00
 000328,0.00003020,-0.00004457,0.00000387,-0.00002388,-0.00000399,0.000
 00491,0.00001193,0.00001756,-0.00000782,-0.00000021,0.00001283,-0.0000
 0196,-0.00002015,-0.00000201,-0.00000090,0.00000206,-0.00000452,0.0000
 0447,-0.00000154,0.00000271,-0.00000035,0.00001417,0.00000460,-0.00000
 737,0.00001124,0.00000964,0.00001585,-0.00001292,0.00001070,0.00000596
 ,-0.00001687,0.00000189,-0.00000091,0.00001992,-0.00009358,0.00000903,
 -0.00001621,-0.00037803,-0.00000181,0.00000174,0.00000129,-0.00000249,
 -0.00003617,-0.00001683,-0.00000645,-0.00000354,-0.00000442,-0.0000021
 6,-0.00001237,0.00000158,0.00001091,-0.00003096,-0.00002108,-0.0000522
 3,0.00000735,0.00000098,0.00001519,0.00003181,0.00001033,0.00001731,0.
 00000227,0.00001308,0.00001932,0.00000332,0.00000491,-0.00000151,-0.00
 163766,0.00050483,0.00157599,-0.00076760,0.00105658,-0.00000440,0.0026
 9110,-0.00261526,-0.00213791,0.10350391,0.05212800,-0.24373489,-0.0008
 1756,-0.00031066,0.00077675,0.01113821,0.00625399,-0.02215796,-0.11450
 749,-0.05582206,0.26332693,0.00000325,0.00000049,-0.00000286,0.0000019
 8,-0.00000466,0.00001425,-0.00000120,-0.00000268,0.00000660,0.00002861
 ,0.00008440,-0.00003536,-0.00007633,-0.00001875,0.00002464,0.00001854,
 0.00002654,-0.00001194,0.00000134,-0.00001376,-0.00001770,0.00002849,0
 .00000630,0.00000095,-0.00000599,0.00000571,-0.00000304,-0.00002172,-0
 .00001117,-0.00000492,0.00001275,-0.00000491,-0.00000153,-0.00000730,0
 .00000116,-0.00000026,0.00000332,0.00000428,-0.00000149,0.00000327,-0.
 00000115,0.00000171,-0.00000356,0.00000588,-0.00000456,-0.00000113,0.0
 0000138,0.00000120,0.00000040,-0.00000558,0.00000974,0.00000147,-0.000
 00750,-0.00001594,0.00000009,0.00000222,-0.00000015,-0.00000008,0.0000
 0818,-0.00000468,-0.00000678,-0.00011764,0.00002470,0.00000740,0.00002
 293,0.00001759,0.,0.00000172,0.00000194,0.00002182,-0.00001103,0.00000
 696,-0.00001031,-0.00000589,0.00000053,-0.00000032,0.00000245,0.000002
 41,-0.00000545,-0.00001119,-0.00000198,0.00000142,0.00000586,-0.000002
 30,0.00000616,0.00000308,0.00000165,0.00000009,0.00000335,0.00000186,-
 0.00000027,0.00000201,0.00000061,0.00059074,0.00034844,-0.00043159,0.0
 0128736,0.00027421,-0.00074720,-0.00119182,-0.00180347,0.00059358,-0.0
 1440326,-0.00636558,0.02786434,-0.10070878,-0.02724190,0.10520596,0.00
 084737,-0.00093619,-0.00027587,-0.00530138,0.00335614,-0.00034611,0.11
 189910,0.00000162,-0.00000247,0.00000178,-0.00000316,0.00000501,-0.000
 00325,0.00005166,-0.00002620,-0.00000206,-0.00005796,0.00003529,0.0000
 1294,0.00013921,-0.00010676,-0.00001272,-0.00004019,0.00009889,-0.0000
 0116,0.00001225,0.00021886,-0.00001640,-0.00006882,0.00001487,0.000018
 10,0.00001243,0.00001856,-0.00000477,0.00001997,-0.00007451,0.00002332
 ,-0.00004207,0.00000414,0.00000788,0.00001600,0.00002567,-0.00001709,0
 .00000671,0.00001753,-0.00000419,-0.00000819,-0.00000225,0.00000107,-0
 .00000053,0.00000238,-0.00000157,-0.00000127,0.00000312,0.00000095,0.0
 0000780,-0.00000133,0.00000329,0.00000397,-0.00000138,-0.00000235,-0.0
 0000846,0.00000926,0.00000416,-0.00000935,0.00000690,-0.00000466,0.000
 02580,-0.00008520,-0.00000302,-0.00003534,-0.00035782,0.00001613,0.000
 00201,0.00000394,-0.00000159,-0.00004745,-0.00005935,-0.00004807,-0.00
 000465,-0.00000620,-0.00000120,-0.00001677,0.00000211,0.00001418,-0.00
 003972,-0.00000702,-0.00005451,0.00000950,-0.00000558,0.00001883,0.000
 03994,0.00000939,0.00001984,0.00000692,0.00000627,0.00001508,0.0000032
 4,0.00000615,-0.00000069,-0.00079527,0.00007028,0.00020325,-0.00078808
 ,-0.00029102,0.00064239,0.00162535,0.00065145,-0.00111035,0.00648607,0
 .00337471,-0.01382343,-0.02828448,-0.06087700,0.05395497,-0.00072851,0
 .00046678,0.00030465,0.00306416,-0.00123835,-0.00027415,0.02808822,0.0
 6250254,-0.00000405,-0.00000397,0.00000171,-0.00000086,0.00001513,-0.0
 0000847,0.00001883,-0.00000873,-0.00000653,-0.00011409,-0.00011349,0.0
 0003798,0.00023451,-0.00001821,-0.00002870,-0.00006148,-0.00000638,0.0
 0001349,-0.00016532,0.00003314,0.00003078,0.00017202,0.00006021,-0.000
 02749,-0.00004243,-0.00001772,0.00000753,-0.00006893,-0.00001845,0.000
 03976,0.00002340,-0.00000259,0.00000564,-0.00004080,0.00001149,0.00000
 428,0.00003506,0.00001425,-0.00000506,-0.00000550,0.00000012,-0.000000
 38,0.00000275,-0.00000283,0.00000376,0.00000135,-0.00000073,-0.0000018
 4,-0.00000092,0.00000158,-0.00000636,-0.00000088,0.00000158,0.00000992
 ,-0.00000437,0.00000138,0.00000008,-0.00000413,-0.00000190,0.00000302,
 0.00002475,0.00012611,-0.00002513,-0.00000178,-0.00003356,-0.00002609,
 0.00001054,0.00000827,-0.00000414,0.00001737,-0.00009683,-0.00004615,-
 0.00002666,-0.00001267,-0.00000772,0.00000640,0.00000847,0.00000705,-0
 .00001849,-0.00003011,-0.00005559,0.00000392,0.00000535,0.00001453,0.0
 0001683,0.00000860,0.00001341,-0.00000346,0.00001838,0.00002416,-0.000
 00017,0.00000441,-0.00000127,-0.00064214,-0.00067506,0.00004370,-0.001
 90939,0.00013542,0.00081621,0.00204834,0.00193205,-0.00025830,-0.00013
 590,-0.00062943,-0.00020806,0.10583042,0.05189916,-0.25409215,0.000343
 95,-0.00032608,0.00073721,0.00000868,0.00009922,0.00161413,-0.11593179
 ,-0.05877785,0.27312126,0.00001110,0.00000797,-0.00000038,-0.00001107,
 -0.00001561,-0.00000102,0.00005219,-0.00001546,0.00000003,0.00016058,0
 .00038119,-0.00003983,-0.00034747,-0.00004585,0.00003240,0.00008794,0.
 00009634,-0.00001584,0.00018431,-0.00001333,-0.00001292,-0.00018104,-0
 .00006379,0.00002029,0.00004520,0.00002930,-0.00000605,0.00006494,0.00
 001438,-0.00000522,-0.00000634,-0.00000601,0.00000012,0.00003510,-0.00
 000634,-0.00000270,-0.00003312,-0.00000767,0.00000363,-0.00000611,-0.0
 0000291,0.00000098,-0.00000524,0.00000546,-0.00000373,-0.00000541,0.00
 000665,0.00000312,0.00001690,-0.00000473,0.00001967,0.00001120,-0.0000
 0956,-0.00001883,-0.00000778,0.00001426,0.00000526,-0.00000755,0.00001
 160,-0.00000698,-0.00007267,-0.00054384,0.00004074,-0.00001796,-0.0000
 1094,0.00000043,-0.00001147,-0.00000774,0.00000162,-0.00002078,0.00005
 415,-0.00000518,0.00001481,0.00000481,-0.00000155,-0.00000702,-0.00000
 629,-0.00000080,0.00001254,0.00001572,0.00000294,-0.00000334,-0.000007
 58,0.00000303,-0.00000787,-0.00000352,-0.00000140,-0.00000081,-0.00000
 473,-0.00000270,0.00000063,-0.00000128,-0.00000001,-0.00086170,0.00366
 261,-0.00019884,0.00230836,-0.00031229,-0.00010716,-0.00716519,-0.0030
 9749,0.00084922,0.00410111,0.03328129,-0.00269083,-0.05011001,-0.02417
 693,0.00170263,0.00110771,-0.00081072,-0.00047532,0.00113995,-0.000796
 88,0.00037771,-0.00209899,-0.01424943,-0.00090034,0.05348002,-0.000018
 60,-0.00000499,-0.00000010,0.00001272,0.00001784,0.00000280,-0.0001449
 5,0.00006837,0.00000152,-0.00007337,-0.00046453,0.00003893,0.00015449,
 0.00030795,-0.00004111,-0.00002479,-0.00032639,0.00003046,-0.00027192,
 -0.00040755,0.00005366,0.00036893,0.00005536,-0.00003396,-0.00008638,-
 0.00008298,0.00001348,-0.00011968,0.00011302,-0.00000124,0.00008026,0.
 00001730,-0.00000344,-0.00006880,-0.00004194,0.00003268,0.00003323,-0.
 00002709,0.00000438,0.00001946,0.00001050,-0.00000285,0.00000963,-0.00
 001380,0.00001119,0.00000899,-0.00001735,-0.00000919,-0.00003206,0.000
 00983,-0.00003570,-0.00002138,0.00001641,0.00003478,0.00002064,-0.0000
 3496,-0.00001600,0.00002395,-0.00002921,0.00002089,-0.00000745,0.00076
 255,-0.00005042,0.00011263,0.00072756,-0.00006168,0.00001022,0.0000019
 8,-0.00000117,0.00008894,0.00005892,-0.00001384,-0.00000062,0.00001043
 ,-0.00000097,0.00004573,0.00000364,-0.00003091,0.00008989,0.00001920,0
 .00010929,-0.00002166,0.00000876,-0.00003685,-0.00009032,-0.00002221,-
 0.00004252,-0.00001604,-0.00001403,-0.00003130,-0.00000695,-0.00001227
 ,0.00000181,0.00191319,-0.00263664,0.00005600,0.00086968,-0.00119894,0
 .00006504,0.00082716,0.00260408,-0.00024865,-0.00373002,-0.01295285,0.
 00111584,-0.02411498,-0.30605577,0.01970855,0.00025649,0.00042237,0.00
 052520,0.00015703,0.00029316,-0.00062310,-0.00073325,-0.00638905,0.000
 24425,0.02524460,0.33526579,0.00000020,-0.00000047,-0.00000023,0.00000
 043,0.00000065,0.00000370,0.00000527,-0.00000347,0.00000036,-0.0000087
 2,-0.00000137,0.00000475,0.00001894,-0.00001651,-0.00000498,-0.0000056
 9,0.00001308,0.00000098,0.00000254,0.00002719,0.00001446,-0.00000855,0
 .00000072,-0.00000315,0.00000174,0.00000265,-0.00000021,0.00000462,-0.
 00000568,0.00002269,-0.00000420,-0.00000024,0.00000662,0.00000099,0.00
 000298,-0.00000353,0.00000081,0.00000237,-0.00000028,-0.00000062,-0.00
 000034,0.00000103,-0.00000012,0.00000124,-0.00000103,-0.00000028,-0.00
 000022,-0.00000006,0.00000107,-0.00000009,-0.00000010,-0.00000026,-0.0
 0000078,-0.00000170,-0.00000094,0.00000085,0.00000041,-0.00000069,0.00
 000122,-0.00000108,0.00000629,-0.00000360,-0.00000364,-0.00000643,-0.0
 0004513,-0.00001843,0.00000028,0.00000045,-0.00000058,-0.00000769,-0.0
 0001069,-0.00004781,-0.00000173,-0.00000131,-0.00000412,-0.00000228,-0
 .00000012,0.00000217,-0.00000523,0.00000152,-0.00001172,0.00000087,-0.
 00000271,0.00000474,0.00000532,0.00000100,0.00000337,0.00000081,0.0000
 0076,0.00000319,0.00000034,0.00000094,-0.00000015,-0.00003916,-0.00012
 918,0.00003520,-0.00015947,0.00013000,0.00074669,0.00055769,0.00008317
 ,0.00050956,-0.00021997,-0.00201177,-0.00092149,0.00168581,0.01972693,
 -0.05223015,0.00004285,0.00038162,-0.00005835,-0.00026188,-0.00030609,
 0.00002428,0.00132202,0.02919733,-0.00045077,-0.00235792,-0.02203184,0
 .04927467,0.00000412,0.00000204,0.00000357,-0.00000049,-0.00001100,-0.
 00001845,-0.00000641,-0.00000056,-0.00000303,0.00005118,0.00010288,0.0
 0001685,-0.00011776,-0.00001336,-0.00000699,0.00003036,0.00002366,0.00
 000430,0.00002786,-0.00002583,0.00002097,0.00000567,-0.00000439,-0.000
 00639,0.00000029,0.00000777,0.00000292,-0.00000960,-0.00000331,0.00001
 600,0.00001044,-0.00000448,0.00000026,-0.00000229,-0.00000132,0.000001
 13,-0.00000194,0.00000170,-0.00000026,0.00000347,-0.00000157,-0.000002
 65,-0.00000099,0.00000002,-0.00000107,-0.00000306,0.00000733,0.0000039
 5,0.00000487,-0.00000376,0.00001664,-0.00000167,-0.00000609,-0.0000056
 4,0.00000127,0.00000856,0.00000237,0.00000143,0.00000037,0.,-0.0000140
 3,-0.00013355,-0.00000695,0.00000712,0.00004245,-0.00002734,-0.0000019
 0,0.,-0.00000221,0.00001875,0.00000337,-0.00002017,-0.00000639,-0.0000
 0382,-0.00000038,0.00000020,0.00000070,0.00000236,0.00000034,-0.000001
 15,-0.00002394,-0.00000041,-0.00000339,0.00000953,0.00000156,0.0000006
 9,0.00000500,-0.00000214,0.00000404,0.00000872,-0.00000063,0.00000099,
 -0.00000076,0.00080062,0.00048597,0.00025358,0.00174450,0.00032558,0.0
 0061528,-0.00163312,-0.00216128,-0.00014153,-0.01883453,-0.00972820,-0
 .02375281,-0.13965038,-0.05331895,-0.11826393,-0.00508881,0.00339508,0
 .00106016,0.00085928,-0.00081174,0.00036397,0.00907970,0.00560685,0.01
 128476,-0.00184568,-0.00076464,-0.00056707,0.15456918,0.00000227,-0.00
 000202,-0.00000030,-0.00000310,0.00000307,-0.00000038,0.00004961,-0.00
 002499,-0.00000116,-0.00004318,0.00005079,-0.00000665,0.00010889,-0.00
 010488,0.00001083,-0.00003246,0.00010165,-0.00000949,0.00003751,0.0002
 1979,-0.00001933,-0.00009904,0.00000386,-0.00000613,0.00001917,0.00002
 283,-0.00000063,0.00002797,-0.00007649,-0.00000665,-0.00004626,0.00000
 464,-0.00000379,0.00002337,0.00002514,-0.00001111,0.00000150,0.0000158
 2,-0.00000457,-0.00000762,-0.00000238,0.00000088,-0.00000167,0.0000029
 4,-0.00000180,-0.00000085,0.00000332,0.00000148,0.00000585,-0.00000110
 ,0.00000392,0.00000663,-0.00000262,-0.00000533,-0.00000756,0.00000840,
 0.00000422,-0.00000932,0.00000837,-0.00000529,0.00002325,-0.00010485,0
 .00000964,-0.00003443,-0.00036035,0.00003864,0.00000069,0.00000302,0.0
 0000049,-0.00004450,-0.00004325,0.00005201,-0.00000062,-0.00000444,0.0
 0000100,-0.00001744,0.00000056,0.00001476,-0.00004242,0.00000110,-0.00
 005717,0.00001055,-0.00000994,0.00002197,0.00004043,0.00000818,0.00002
 073,0.00000851,0.00000359,0.00001457,0.00000320,0.00000557,-0.00000117
 ,-0.00077542,0.00015307,-0.00010572,-0.00057427,-0.00045137,-0.0003884
 6,0.00150523,0.00050873,0.00078566,0.00886267,0.00531683,0.01202325,-0
 .05472504,-0.07773880,-0.06884001,0.00312937,-0.00125190,0.00011099,-0
 .00081567,0.00050344,-0.00013786,0.00504130,0.00197738,0.00614798,-0.0
 1860944,-0.01006247,-0.02500506,0.05698234,0.08128975,0.00000309,0.000
 00427,-0.00000017,0.00000021,-0.00001540,-0.00000358,-0.00002639,0.000
 01235,-0.00000218,0.00011593,0.00009077,-0.00000284,-0.00023515,0.0000
 3654,0.00000585,0.00006315,-0.00001333,0.00000279,0.00015947,-0.000062
 26,0.00000706,-0.00016125,-0.00006356,0.00001621,0.00004080,0.00001303
 ,-0.00000398,0.00007461,0.00003752,0.00001570,-0.00001792,0.00000312,0
 .00000984,0.00003750,-0.00001521,0.00000191,-0.00003508,-0.00001671,0.
 00000719,0.00000568,0.00000026,-0.00000124,-0.00000093,-0.00000074,-0.
 00000091,-0.00000147,0.00000214,0.00000255,0.00000112,0.00000166,0.000
 00570,-0.00000110,-0.00000107,-0.00000290,0.00000469,-0.00000009,0.000
 00092,0.00000680,-0.00000393,0.00000100,-0.00002862,-0.00008826,-0.000
 00287,0.00000376,0.00008318,-0.00003083,-0.00001073,-0.00000927,-0.000
 00044,-0.00002170,0.00010098,-0.00005478,0.00002600,0.00001313,-0.0000
 1227,-0.00000134,-0.00001170,-0.00000601,0.00002404,0.00006094,0.00000
 089,-0.00000695,-0.00003041,0.00001502,-0.00002506,-0.00001445,-0.0000
 0494,0.00000100,-0.00001916,-0.00000886,-0.00000070,-0.00000561,-0.000
 00058,0.00063671,0.00057199,-0.00015893,0.00187111,-0.00010852,0.00044
 463,-0.00204686,-0.00169936,0.00021380,0.00203691,0.00159383,0.0021019
 4,-0.11866267,-0.06695951,-0.19851196,0.00073153,-0.00030705,0.0014242
 4,-0.00024922,0.00051382,0.00071021,-0.01726199,-0.01029505,-0.0212894
 1,0.00379173,0.00124609,0.00310469,0.12915926,0.07535504,0.21200756\\0
 .00000107,-0.00000014,0.00000040,-0.00000098,-0.00000083,0.00000084,0.
 00000764,0.00000010,-0.00000166,-0.00000762,-0.00000243,0.00000252,0.0
 0000853,0.00000728,0.00000107,-0.00000030,-0.00000400,0.00000003,-0.00
 000664,0.00000223,-0.00001282,-0.00000077,-0.00000212,0.00000724,0.000
 00245,-0.00000035,-0.00000117,-0.00000458,0.00000185,-0.00000061,0.000
 00170,0.00000122,-0.00000098,0.00000091,-0.00000289,0.00000048,-0.0000
 0501,0.00000271,-0.00000017,-0.00000011,0.00000005,0.00000018,-0.00000
 024,0.00000020,0.00000035,-0.00000032,-0.00000004,0.00000028,-0.000000
 42,0.00000026,-0.00000034,-0.00000008,0.00000060,0.00000024,-0.0000017
 1,0.00000003,0.00000093,-0.00000032,0.00000058,0.00000046,-0.00000078,
 0.00000083,0.00000153,0.00000170,-0.00000446,-0.00000076,0.00000107,0.
 00000041,0.00000010,0.00000103,-0.00000015,0.00000069,0.00000069,0.000
 00034,-0.00000007,0.00000118,-0.00000008,0.00000123,0.00000069,-0.0000
 0607,-0.00000367,0.00000059,0.00000407,-0.00000185,-0.00000082,0.00000
 010,0.00000095,-0.00000034,0.00000084,0.00000112,0.00000070,-0.0000004
 1,-0.00000032,0.00000648,0.00000072,0.00000181,-0.00000011,0.00000455,
 0.00000918,-0.00000495,-0.00000412,-0.00000690,-0.00000040,-0.00000455
 ,-0.00000415,-0.00000227,0.00000333,0.00000100,-0.00000070,0.00000203,
 0.00000219,0.00000210,0.00000101,0.00000179,0.00000019,-0.00000122,-0.
 00000031,0.00000119,-0.00000107,-0.00000045,-0.00000047,-0.00000039,-0
 .00000037\\\@


 WHEN A MATHEMATICIAN ENGAGED IN INVESTIGATING
 PHYSICAL ACTIONS AND RESULTS HAS ARRIVED AT HIS
 CONCLUSIONS, MAY THEY NOT BE EXPRESSED IN COMMON
 LANGUAGE AS FULLY, CLEARLY, AND DEFINITELY AS IN
 MATHEMATICAL FORMULAE?
           - LETTER FROM M. FARADAY TO J.C. MAXWELL, 1857.
 Job cpu time:       0 days  7 hours 12 minutes 26.1 seconds.
 File lengths (MBytes):  RWF=   1014 Int=      0 D2E=      0 Chk=     17 Scr=      1
 Normal termination of Gaussian 09 at Tue Feb 19 12:39:49 2019.
WARNING: pbs_rusage is deprecated and values produced may not be accurate


=============================================================================
                                     Resource usage:
                                       CPU time:              21:44:13
   JobId:    5875486.r-man2            Elapsed time:          02:46:05
   Project:             q95            Requested time:        46:00:00
   Service Units:     22.14 
                                       Max physical memory:     1572MB
                                       Max virtual memory:      2836MB
                                       Requested memory:           0MB

                                       Number of cpus:               8

                                       Max jobfs disk use:       1.0GB
                                       Requested jobfs:         20.0GB
=============================================================================

