 Entering Gaussian System, Link 0=/apps/gaussian/g09e01/g09/g09
 AtFile(1): /home/507/hio507/Basis/6-31pGd.gbs
 Initial command:
 /apps/gaussian/g09e01/g09/l1.exe "/jobfs/local/5976543.r-man2/Gau-14802.inp" -scrdir="/jobfs/local/5976543.r-man2/"
 Entering Link 1 = /apps/gaussian/g09e01/g09/l1.exe PID=     14803.
  
 Copyright (c) 1988,1990,1992,1993,1995,1998,2003,2009,2015,
            Gaussian, Inc.  All Rights Reserved.
  
 This is part of the Gaussian(R) 09 program.  It is based on
 the Gaussian(R) 03 system (copyright 2003, Gaussian, Inc.),
 the Gaussian(R) 98 system (copyright 1998, Gaussian, Inc.),
 the Gaussian(R) 94 system (copyright 1995, Gaussian, Inc.),
 the Gaussian 92(TM) system (copyright 1992, Gaussian, Inc.),
 the Gaussian 90(TM) system (copyright 1990, Gaussian, Inc.),
 the Gaussian 88(TM) system (copyright 1988, Gaussian, Inc.),
 the Gaussian 86(TM) system (copyright 1986, Carnegie Mellon
 University), and the Gaussian 82(TM) system (copyright 1983,
 Carnegie Mellon University). Gaussian is a federally registered
 trademark of Gaussian, Inc.
  
 This software contains proprietary and confidential information,
 including trade secrets, belonging to Gaussian, Inc.
  
 This software is provided under written license and may be
 used, copied, transmitted, or stored only in accord with that
 written license.
  
 The following legend is applicable only to US Government
 contracts under FAR:
  
                    RESTRICTED RIGHTS LEGEND
  
 Use, reproduction and disclosure by the US Government is
 subject to restrictions as set forth in subparagraphs (a)
 and (c) of the Commercial Computer Software - Restricted
 Rights clause in FAR 52.227-19.
  
 Gaussian, Inc.
 340 Quinnipiac St., Bldg. 40, Wallingford CT 06492
  
  
 ---------------------------------------------------------------
 Warning -- This program may not be used in any manner that
 competes with the business of Gaussian, Inc. or will provide
 assistance to any competitor of Gaussian, Inc.  The licensee
 of this program is prohibited from giving any competitor of
 Gaussian, Inc. access to this program.  By using this program,
 the user acknowledges that Gaussian, Inc. is engaged in the
 business of creating and licensing software in the field of
 computational chemistry and represents and warrants to the
 licensee that it is not a competitor of Gaussian, Inc. and that
 it will not use this program in any manner prohibited above.
 ---------------------------------------------------------------
  

 Cite this work as:
 Gaussian 09, Revision E.01,
 M. J. Frisch, G. W. Trucks, H. B. Schlegel, G. E. Scuseria, 
 M. A. Robb, J. R. Cheeseman, G. Scalmani, V. Barone, B. Mennucci, 
 G. A. Petersson, H. Nakatsuji, M. Caricato, X. Li, H. P. Hratchian, 
 A. F. Izmaylov, J. Bloino, G. Zheng, J. L. Sonnenberg, M. Hada, 
 M. Ehara, K. Toyota, R. Fukuda, J. Hasegawa, M. Ishida, T. Nakajima, 
 Y. Honda, O. Kitao, H. Nakai, T. Vreven, J. A. Montgomery, Jr., 
 J. E. Peralta, F. Ogliaro, M. Bearpark, J. J. Heyd, E. Brothers, 
 K. N. Kudin, V. N. Staroverov, T. Keith, R. Kobayashi, J. Normand, 
 K. Raghavachari, A. Rendell, J. C. Burant, S. S. Iyengar, J. Tomasi, 
 M. Cossi, N. Rega, J. M. Millam, M. Klene, J. E. Knox, J. B. Cross, 
 V. Bakken, C. Adamo, J. Jaramillo, R. Gomperts, R. E. Stratmann, 
 O. Yazyev, A. J. Austin, R. Cammi, C. Pomelli, J. W. Ochterski, 
 R. L. Martin, K. Morokuma, V. G. Zakrzewski, G. A. Voth, 
 P. Salvador, J. J. Dannenberg, S. Dapprich, A. D. Daniels, 
 O. Farkas, J. B. Foresman, J. V. Ortiz, J. Cioslowski, 
 and D. J. Fox, Gaussian, Inc., Wallingford CT, 2013.
 
 ******************************************
 Gaussian 09:  ES64L-G09RevE.01 30-Nov-2015
                21-Feb-2019 
 ******************************************
 %chk=4SulfCF3_EtO.M062X_6-31pGd_bsse.chk
 %mem=196608000
 %nproc=4
 Will use up to    4 processors via shared memory.
 ----------------------------------------------------------------------
 # M062X/Gen 6D SCF=Tight INT(grid=ultrafine) Counterpoise=2 maxdisk=67
 1088640
 ----------------------------------------------------------------------
 1/38=1,62=2/1;
 2/12=2,17=6,18=5,40=1/2;
 1/38=1,53=2,62=2,63=1/22;
 3/5=7,8=2,11=2,16=1,25=1,30=1,74=-55,75=-5/1,2,3;
 4//1;
 5/5=2,32=2,38=5/2;
 6/7=2,8=2,9=2,10=2,28=1/1;
 1/53=2,62=2,63=1/22;
 3/5=7,6=11,8=2,11=2,16=1,25=1,30=1,74=-55,75=-5,82=7/1,2,3;
 4//1;
 5/5=2,32=2,38=5/2;
 6/7=2,8=2,9=2,10=2,28=1/1;
 1/53=2,62=2,63=1/22(-4);
 99/5=1,9=1/99;
 -------------------------------
 4SulfCF3_EtO.M062X_6-31pGd_bsse
 -------------------------------
 Symbolic Z-matrix:
 Charge = -1 Multiplicity = 1 in supermolecule
 Charge =  0 Multiplicity = 1 in fragment      1.
 Charge = -1 Multiplicity = 1 in fragment      2.
 C(Fragment=1)        -1.7495    2.24901   0.30052 
 C(Fragment=1)        -0.37348   1.5888    0.25702 
 C(Fragment=1)         0.73368   2.61205   0.02947 
 N(Fragment=1)         2.01587   1.94735  -0.0069 
 C(Fragment=1)         3.15045   2.66867  -0.15834 
 O(Fragment=1)         3.16042   3.89816  -0.26245 
 N(Fragment=1)         4.2923    1.8756   -0.18173 
 C(Fragment=1)         5.59683   2.28917  -0.32742 
 C(Fragment=1)         6.00468   3.63116  -0.47728 
 C(Fragment=1)         6.58304   1.27507  -0.32762 
 C(Fragment=1)         7.92172   1.59028  -0.47506 
 C(Fragment=1)         8.32327   2.92508  -0.61986 
 C(Fragment=1)         7.35327   3.9309   -0.62441 
 H(Fragment=1)        -2.54137   1.51106   0.46592 
 H(Fragment=1)        -1.9671    2.76903  -0.64009 
 H(Fragment=1)        -1.80643   2.98889   1.10791 
 H(Fragment=1)        -0.33431   0.83356  -0.53668 
 H(Fragment=1)        -0.17654   1.05018   1.19147 
 H(Fragment=1)         0.72589   3.36712   0.82865 
 H(Fragment=1)         0.56028   3.15649  -0.91096 
 H(Fragment=1)         2.03815   0.91255   0.06055 
 H(Fragment=1)         4.15986   0.8465   -0.09008 
 H(Fragment=1)         5.25761   4.41289  -0.47874 
 H(Fragment=1)         6.26161   0.24234  -0.21316 
 H(Fragment=1)         8.66856   0.80093  -0.47452 
 S(Fragment=1)         10.03552   3.32717  -0.86802 
 C(Fragment=1)         10.55078   3.55237   0.84851 
 F(Fragment=1)         10.40261   2.45241   1.60132 
 F(Fragment=1)         11.85971   3.87219   0.86352 
 F(Fragment=1)         9.89495   4.53688   1.48049 
 H(Fragment=1)         7.66063   4.96694  -0.74103 
 O(Fragment=2)         1.91391  -0.85613   0.18505 
 O(Fragment=2)         4.15445  -0.89262   0.03213 
 C(Fragment=2)         3.02579  -1.44206   0.14715 
 C(Fragment=2)         2.98809  -2.97574   0.25432 
 C(Fragment=2)         4.35403  -3.6471    0.18338 
 H(Fragment=2)         2.32773  -3.33751  -0.54353 
 H(Fragment=2)         2.47798  -3.21847   1.19491 
 H(Fragment=2)         4.85309  -3.40776  -0.76018 
 H(Fragment=2)         4.26595  -4.73751   0.26603 
 H(Fragment=2)         5.00298  -3.28677   0.98676 
 
                          Input orientation:                          
 ---------------------------------------------------------------------
 Center     Atomic      Atomic             Coordinates (Angstroms)
 Number     Number       Type             X           Y           Z
 ---------------------------------------------------------------------
      1          6           0       -1.749496    2.249015    0.300515
      2          6           0       -0.373477    1.588801    0.257023
      3          6           0        0.733680    2.612046    0.029469
      4          7           0        2.015866    1.947347   -0.006898
      5          6           0        3.150454    2.668670   -0.158336
      6          8           0        3.160421    3.898164   -0.262450
      7          7           0        4.292300    1.875597   -0.181730
      8          6           0        5.596830    2.289165   -0.327425
      9          6           0        6.004685    3.631163   -0.477281
     10          6           0        6.583035    1.275069   -0.327622
     11          6           0        7.921718    1.590278   -0.475061
     12          6           0        8.323269    2.925084   -0.619857
     13          6           0        7.353269    3.930900   -0.624406
     14          1           0       -2.541367    1.511056    0.465922
     15          1           0       -1.967103    2.769035   -0.640092
     16          1           0       -1.806428    2.988894    1.107908
     17          1           0       -0.334307    0.833556   -0.536678
     18          1           0       -0.176540    1.050180    1.191470
     19          1           0        0.725892    3.367116    0.828651
     20          1           0        0.560285    3.156493   -0.910961
     21          1           0        2.038148    0.912550    0.060549
     22          1           0        4.159861    0.846503   -0.090079
     23          1           0        5.257611    4.412893   -0.478740
     24          1           0        6.261612    0.242340   -0.213159
     25          1           0        8.668559    0.800933   -0.474515
     26         16           0       10.035520    3.327169   -0.868016
     27          6           0       10.550776    3.552365    0.848513
     28          9           0       10.402614    2.452411    1.601317
     29          9           0       11.859711    3.872186    0.863519
     30          9           0        9.894948    4.536881    1.480487
     31          1           0        7.660626    4.966940   -0.741034
     32          8           0        1.913905   -0.856133    0.185046
     33          8           0        4.154451   -0.892616    0.032125
     34          6           0        3.025792   -1.442059    0.147155
     35          6           0        2.988086   -2.975740    0.254317
     36          6           0        4.354029   -3.647101    0.183385
     37          1           0        2.327734   -3.337513   -0.543528
     38          1           0        2.477980   -3.218474    1.194907
     39          1           0        4.853094   -3.407761   -0.760180
     40          1           0        4.265947   -4.737514    0.266033
     41          1           0        5.002979   -3.286771    0.986756
 ---------------------------------------------------------------------
                    Distance matrix (angstroms):
                    1          2          3          4          5
     1  C    0.000000
     2  C    1.526827   0.000000
     3  C    2.524167   1.524666   0.000000
     4  N    3.789915   2.430467   1.444697   0.000000
     5  C    4.939247   3.709007   2.424722   1.352971   0.000000
     6  O    5.209981   4.253403   2.761954   2.276181   1.233934
     7  N    6.072503   4.695129   3.640157   2.284265   1.390440
     8  C    7.373223   6.039591   4.886907   3.611493   2.481405
     9  C    7.914709   6.737313   5.392485   4.355131   3.028985
    10  C    8.412740   6.988082   6.010822   4.627510   3.708557
    11  C    9.724599   8.327437   7.277806   5.935129   4.901857
    12  C   10.137294   8.842395   7.623744   6.412099   5.199688
    13  C    9.302932   8.121881   6.781290   5.727449   4.412947
    14  H    1.094990   2.179318   3.482614   4.602421   5.841797
    15  H    1.096593   2.176560   2.786967   4.115842   5.141163
    16  H    1.096606   2.176606   2.785174   4.115525   5.126071
    17  H    2.169602   1.096308   2.150382   2.654150   3.956557
    18  H    2.169147   1.096398   2.148994   2.654739   3.938322
    19  H    2.767060   2.167434   1.099492   2.092348   2.709331
    20  H    2.761572   2.166508   1.100407   2.097161   2.741057
    21  H    4.023676   2.512340   2.142637   1.037232   2.090238
    22  H    6.086058   4.606804   3.856184   2.411533   2.084192
    23  H    7.374900   6.342396   4.895639   4.100056   2.754103
    24  H    8.274567   6.786637   6.019337   4.579951   3.945806
    25  H   10.546728   9.105729   8.154535   6.766923   5.834200
    26  S   11.891781  10.612956   9.372359   8.182926   6.952797
    27  C   12.381264  11.115068   9.895979   8.726539   7.520600
    28  F   12.223224  10.893901   9.797167   8.554471   7.465719
    29  F   13.717222  12.459236  11.228187  10.067965   8.851203
    30  F   11.925592  10.753074   9.473082   8.426027   7.187778
    31  H    9.849991   8.772385   7.356751   6.443618   5.095412
    32  O    4.803726   3.348881   3.666798   2.811893   3.751161
    33  O    6.693166   5.168186   4.897382   3.555343   3.705003
    34  C    6.037459   4.555569   4.658690   3.540022   4.123949
    35  C    7.053005   5.668788   6.029616   5.024961   5.661803
    36  C    8.487102   7.054743   7.232395   6.066387   6.438503
    37  H    6.967460   5.675032   6.185999   5.321182   6.074494
    38  H    6.968853   5.667480   6.196434   5.323869   6.077989
    39  H    8.758903   7.301876   7.336975   6.106921   6.339103
    40  H    9.219453   7.845164   8.157752   7.058663   7.501732
    41  H    8.758525   7.294518   7.344342   6.107878   6.341164
                    6          7          8          9         10
     6  O    0.000000
     7  N    2.319147   0.000000
     8  C    2.920478   1.376250   0.000000
     9  C    2.864835   2.470146   1.410588   0.000000
    10  C    4.312675   2.372632   1.414564   2.430651   0.000000
    11  C    5.295422   3.652414   2.432148   2.800041   1.383173
    12  C    5.265892   4.188327   2.814849   2.427901   2.415857
    13  C    4.208570   3.713457   2.422513   1.389305   2.781147
    14  H    6.224081   6.873961   8.213714   8.855477   9.161883
    15  H    5.263939   6.339437   7.585587   8.019924   8.685300
    16  H    5.232040   6.332226   7.573509   7.996175   8.682225
    17  H    4.656194   4.755768   6.110726   6.929137   6.934570
    18  H    4.621710   4.747370   6.097042   6.903169   6.931815
    19  H    2.720192   3.995593   5.120989   5.444340   6.326117
    20  H    2.780530   4.012532   5.143886   5.482233   6.336684
    21  H    3.205888   2.463202   3.835337   4.838753   4.575817
    22  H    3.215779   1.041622   2.049997   3.362682   2.472219
    23  H    2.170239   2.730917   2.155964   1.081306   3.409622
    24  H    4.794254   2.558653   2.155107   3.408796   1.087632
    25  H    6.322768   4.515780   3.416429   3.886700   2.143780
    26  S    6.925297   5.963440   4.590387   4.061122   4.052504
    27  C    7.481388   6.560599   5.245958   4.736125   4.723593
    28  F    7.616639   6.391236   5.180951   5.005178   4.438031
    29  F    8.771895   7.895861   6.568712   6.011420   6.000595
    30  F    6.985675   6.421453   5.176349   4.448296   4.987729
    31  H    4.650072   4.605957   3.405995   2.143830   3.868077
    32  O    4.935322   3.640555   4.870263   6.108108   5.158064
    33  O    4.901678   2.779882   3.511904   4.914004   3.275103
    34  C    5.357600   3.566378   4.556040   5.916190   4.501353
    35  C    6.895456   5.042478   5.904507   7.299744   5.597472
    36  C    7.652091   5.535098   6.086439   7.492280   5.427463
    37  H    7.288854   5.582735   6.511006   7.879517   6.279340
    38  H    7.296311   5.580004   6.509901   7.883614   6.273874
    39  H    7.515945   5.344434   5.761544   7.138112   5.010859
    40  H    8.722180   6.628306   7.176188   8.579655   6.470895
    41  H    7.521890   5.340456   5.759409   7.141752   5.003454
                   11         12         13         14         15
    11  C    0.000000
    12  C    1.401398   0.000000
    13  C    2.413286   1.397349   0.000000
    14  H   10.505611  11.009936  10.244427   0.000000
    15  H    9.960196  10.291575   9.392525   1.770750   0.000000
    16  H    9.954835  10.276186   9.369543   1.770956   1.769084
    17  H    8.290861   8.907021   8.288550   2.517007   2.534324
    18  H    8.285578   8.890608   8.264017   2.516195   3.084672
    19  H    7.525738   7.746851   6.808183   3.775117   3.125240
    20  H    7.538815   7.771886   6.842986   3.771407   2.571223
    21  H    5.946645   6.634455   6.150619   4.636215   4.469841
    22  H    3.853956   4.683495   4.471786   6.757013   6.445025
    23  H    3.881318   3.410534   2.155300   8.374789   7.411127
    24  H    2.154409   3.407777   3.868632   8.919822   8.618481
    25  H    1.086663   2.156935   3.398404  11.271696  10.817493
    26  S    2.763939   1.776248   2.760128  12.777156  12.017755
    27  C    3.537454   2.740689   3.540738  13.255848  12.630394
    28  F    3.348054   3.079076   4.054414  13.027736  12.575137
    29  F    4.744122   3.950169   4.746092  14.598769  13.952010
    30  F    4.049725   3.078881   3.355282  12.839272  12.179097
    31  H    3.397169   2.150105   1.086944  10.838843   9.875938
    32  O    6.520313   7.485013   7.290925   5.052912   5.374470
    33  O    4.540297   5.690251   5.824928   7.127398   7.164705
    34  C    5.792436   6.908220   6.941978   6.309972   6.578911
    35  C    6.761748   8.003005   8.217582   7.123971   7.639130
    36  C    6.371192   7.719694   8.189876   8.615851   9.044425
    37  H    7.455231   8.670201   8.836989   6.945196   7.466249
    38  H    7.452997   8.672028   8.842618   6.934963   7.679599
    39  H    5.871809   7.222654   7.754048   8.965274   9.202300
    40  H    7.345396   8.715623   9.244775   9.242516   9.798993
    41  H    5.868692   7.224449   7.759799   8.955867   9.375578
                   16         17         18         19         20
    16  H    0.000000
    17  H    3.085009   0.000000
    18  H    2.534192   1.748803   0.000000
    19  H    2.575593   3.067094   2.512810   0.000000
    20  H    3.115325   2.517224   3.065890   1.760124   0.000000
    21  H    4.493209   2.447746   2.490535   2.887367   2.857130
    22  H    6.451482   4.516322   4.526392   4.357717   4.355095
    23  H    7.378745   6.639620   6.605107   4.831087   4.881622
    24  H    8.624503   6.630260   6.638930   6.441567   6.440834
    25  H   10.817421   9.003139   9.004077   8.448047   8.454777
    26  S   12.010430  10.670576  10.663598   9.463057   9.476869
    27  C   12.372763  11.304676  11.020610   9.826650  10.151964
    28  F   12.230780  11.066760  10.679546   9.750520  10.182274
    29  F   13.696835  12.644679  12.366997  11.145324  11.460281
    30  F   11.809204  11.064413  10.661871   9.266328   9.734497
    31  H    9.846642   9.002531   8.971998   7.287927   7.329491
    32  O    5.429253   2.903514   3.002812   4.434122   4.374322
    33  O    7.194130   4.842743   4.886310   5.525829   5.495701
    34  C    6.626216   4.115375   4.190080   5.374210   5.324003
    35  C    7.700185   5.116123   5.205876   6.758639   6.697490
    36  C    9.101780   6.524973   6.603539   7.923318   7.866319
    37  H    7.735758   4.948164   5.341671   7.028571   6.740252
    38  H    7.542886   5.227455   5.026717   6.824510   6.982294
    39  H    9.421050   6.704317   6.998528   8.090559   7.844768
    40  H    9.863056   7.269354   7.354558   8.861916   8.799579
    41  H    9.261030   6.912638   6.758584   7.911553   8.053230
                   21         22         23         24         25
    21  H    0.000000
    22  H    2.128079   0.000000
    23  H    4.786249   3.751699   0.000000
    24  H    4.285061   2.190324   4.297913   0.000000
    25  H    6.652902   4.525287   4.967981   2.484698   0.000000
    26  S    8.405390   6.425127   4.915154   4.918067   2.899189
    27  C    8.947309   7.003316   5.524463   5.520900   3.586576
    28  F    8.643462   6.664212   5.885675   5.032358   3.169133
    29  F   10.289184   8.327772   6.758827   6.758234   4.626703
    30  F    8.768199   6.998342   5.035756   5.874747   4.391284
    31  H    6.978028   5.445833   2.479969   4.955576   4.294482
    32  O    1.777407   2.831781   6.275637   4.501974   6.986146
    33  O    2.781757   1.743416   5.443011   2.405913   4.847882
    34  C    2.554823   2.565133   6.297080   3.665728   6.103958
    35  C    4.007334   4.012631   7.764020   4.614168   6.860191
    36  C    5.115545   4.506102   8.137466   4.350158   6.231613
    37  H    4.302534   4.590021   8.285961   5.329155   7.572156
    38  H    4.306457   4.583006   8.292478   5.317495   7.567421
    39  H    5.221361   4.362152   7.836164   3.950493   5.687924
    40  H    6.076885   5.596366   9.234069   5.386210   7.113776
    41  H    5.223253   4.353662   7.842023   3.934282   5.681646
                   26         27         28         29         30
    26  S    0.000000
    27  C    1.806287   0.000000
    28  F    2.645291   1.341106   0.000000
    29  F    2.573506   1.347525   2.164079   0.000000
    30  F    2.645493   1.341183   2.148799   2.163969   0.000000
    31  H    2.888788   3.588962   4.396358   4.626596   3.179985
    32  O    9.196172   9.719598   9.220112  11.033421   9.719044
    33  O    7.294094   7.831814   7.258864   9.097559   8.033088
    34  C    8.538875   9.058784   8.467526  10.334046   9.203848
    35  C    9.521167  10.008172   9.287328  11.223678  10.278508
    36  C    9.056777   9.522309   8.706317  10.646010   9.968040
    37  H   10.194765  10.817884  10.165002  12.034040  11.107000
    38  H   10.208697  10.542024   9.753150  11.764529  10.734920
    39  H    8.498732   9.137550   8.409248  10.233607   9.672550
    40  H    9.980639  10.419235   9.546554  11.495616  10.916729
    41  H    8.515330   8.807437   7.903920   9.913658   9.240382
                   31         32         33         34         35
    31  H    0.000000
    32  O    8.233505   0.000000
    33  O    6.872076   2.246055   0.000000
    34  C    7.959009   1.257392   1.260552   0.000000
    35  C    9.268739   2.377267   2.397745   1.537883   0.000000
    36  C    9.273070   3.707250   2.765844   2.574439   1.523665
    37  H    9.871306   2.619030   3.105767   2.134730   1.097041
    38  H    9.879710   2.630333   3.093902   2.133901   1.097196
    39  H    8.832792   4.005383   2.727967   2.833069   2.166587
    40  H   10.330269   4.539138   3.853620   3.523087   2.176445
    41  H    8.841498   4.011622   2.713539   2.831460   2.166333
                   36         37         38         39         40
    36  C    0.000000
    37  H    2.174883   0.000000
    38  H    2.174042   1.748971   0.000000
    39  H    1.093922   2.535610   3.082104   0.000000
    40  H    1.097083   2.524294   2.523315   1.779354   0.000000
    41  H    1.093791   3.082415   2.534485   1.757524   1.779695
                   41
    41  H    0.000000
 Stoichiometry    C14H18F3N2O3S(1-)
 Framework group  C1[X(C14H18F3N2O3S)]
 Deg. of freedom   117
 Full point group                 C1      NOp   1
 Largest Abelian subgroup         C1      NOp   1
 Largest concise Abelian subgroup C1      NOp   1
                         Standard orientation:                         
 ---------------------------------------------------------------------
 Center     Atomic      Atomic             Coordinates (Angstroms)
 Number     Number       Type             X           Y           Z
 ---------------------------------------------------------------------
      1          6           0        6.700965   -2.710842    0.477042
      2          6           0        5.605567   -1.652714    0.369030
      3          6           0        4.237423   -2.282544    0.132166
      4          7           0        3.232270   -1.249468    0.034324
      5          6           0        1.931747   -1.581543   -0.135663
      6          8           0        1.536148   -2.748198   -0.206462
      7          7           0        1.099969   -0.470474   -0.219301
      8          6           0       -0.264602   -0.456929   -0.397698
      9          6           0       -1.072061   -1.606567   -0.524584
     10          6           0       -0.879451    0.815550   -0.458928
     11          6           0       -2.245287    0.933073   -0.642906
     12          6           0       -3.044613   -0.211548   -0.764720
     13          6           0       -2.442406   -1.471241   -0.709005
     14          1           0        7.681368   -2.254484    0.648938
     15          1           0        6.765082   -3.306977   -0.441124
     16          1           0        6.502163   -3.400915    1.305789
     17          1           0        5.825751   -0.953165   -0.445858
     18          1           0        5.567078   -1.045678    1.281233
     19          1           0        3.987401   -2.971836    0.951462
     20          1           0        4.251883   -2.887904   -0.786652
     21          1           0        3.536609   -0.258632    0.072713
     22          1           0        1.548681    0.467083   -0.151342
     23          1           0       -0.610537   -2.583389   -0.479437
     24          1           0       -0.250884    1.697837   -0.361886
     25          1           0       -2.704163    1.917009   -0.689165
     26         16           0       -4.789852   -0.062380   -1.059588
     27          6           0       -5.390022   -0.050797    0.644036
     28          9           0       -4.919524    0.973187    1.371122
     29          9           0       -6.732915    0.058920    0.623482
     30          9           0       -5.094004   -1.168008    1.324465
     31          1           0       -3.058627   -2.361179   -0.807645
     32          8           0        4.210528    1.384096    0.153025
     33          8           0        2.100604    2.119137   -0.076532
     34          6           0        3.342036    2.288746    0.061570
     35          6           0        3.860012    3.735248    0.128051
     36          6           0        2.778338    4.799769   -0.007339
     37          1           0        4.619396    3.841064   -0.656576
     38          1           0        4.398457    3.839101    1.078382
     39          1           0        2.251507    4.695546   -0.960361
     40          1           0        3.204572    5.809127    0.048453
     41          1           0        2.030095    4.691929    0.783156
 ---------------------------------------------------------------------
 Rotational constants (GHZ):      0.3545535      0.0873355      0.0733285
 Counterpoise: doing full dimer calculation.
 General basis read from cards:  (6D, 7F)
 There are   477 symmetry adapted cartesian basis functions of A   symmetry.
 There are   477 symmetry adapted basis functions of A   symmetry.
   477 basis functions,   832 primitive gaussians,   477 cartesian basis functions
    92 alpha electrons       92 beta electrons
       nuclear repulsion energy      2061.8116633138 Hartrees.
 NAtoms=   41 NActive=   41 NUniq=   41 SFac= 1.00D+00 NAtFMM=   60 NAOKFM=F Big=F
 Integral buffers will be    131072 words long.
 Raffenetti 2 integral format.
 Two-electron integral symmetry is turned on.
 One-electron integrals computed using PRISM.
 NBasis=   477 RedAO= T EigKep=  1.10D-06  NBF=   477
 NBsUse=   476 1.00D-06 EigRej=  7.51D-07 NBFU=   476
 ExpMin= 4.05D-02 ExpMax= 2.19D+04 ExpMxC= 3.30D+03 IAcc=3 IRadAn=         5 AccDes= 0.00D+00
 Harris functional with IExCor= 1009 and IRadAn=       5 diagonalized for initial guess.
 HarFok:  IExCor= 1009 AccDes= 0.00D+00 IRadAn=         5 IDoV= 1 UseB2=F ITyADJ=14
 ICtDFT=  3500011 ScaDFX=  1.000000  1.000000  1.000000  1.000000
 FoFCou: FMM=F IPFlag=           0 FMFlag=      100000 FMFlg1=           0
         NFxFlg=           0 DoJE=T BraDBF=F KetDBF=T FulRan=T
         wScrn=  0.000000 ICntrl=     500 IOpCl=  0 I1Cent=   200000004 NGrid=           0
         NMat0=    1 NMatS0=      1 NMatT0=    0 NMatD0=    1 NMtDS0=    0 NMtDT0=    0
 Petite list used in FoFCou.
 Requested convergence on RMS density matrix=1.00D-08 within 128 cycles.
 Requested convergence on MAX density matrix=1.00D-06.
 Requested convergence on             energy=1.00D-06.
 No special actions if energy rises.
 SCF Done:  E(RM062X) =  -1576.91724003     A.U. after   15 cycles
            NFock= 15  Conv=0.78D-08     -V/T= 2.0069

 **********************************************************************

            Population analysis using the SCF density.

 **********************************************************************

 Orbital symmetries:
       Occupied  (A) (A) (A) (A) (A) (A) (A) (A) (A) (A) (A) (A)
                 (A) (A) (A) (A) (A) (A) (A) (A) (A) (A) (A) (A)
                 (A) (A) (A) (A) (A) (A) (A) (A) (A) (A) (A) (A)
                 (A) (A) (A) (A) (A) (A) (A) (A) (A) (A) (A) (A)
                 (A) (A) (A) (A) (A) (A) (A) (A) (A) (A) (A) (A)
                 (A) (A) (A) (A) (A) (A) (A) (A) (A) (A) (A) (A)
                 (A) (A) (A) (A) (A) (A) (A) (A) (A) (A) (A) (A)
                 (A) (A) (A) (A) (A) (A) (A) (A)
       Virtual   (A) (A) (A) (A) (A) (A) (A) (A) (A) (A) (A) (A)
                 (A) (A) (A) (A) (A) (A) (A) (A) (A) (A) (A) (A)
                 (A) (A) (A) (A) (A) (A) (A) (A) (A) (A) (A) (A)
                 (A) (A) (A) (A) (A) (A) (A) (A) (A) (A) (A) (A)
                 (A) (A) (A) (A) (A) (A) (A) (A) (A) (A) (A) (A)
                 (A) (A) (A) (A) (A) (A) (A) (A) (A) (A) (A) (A)
                 (A) (A) (A) (A) (A) (A) (A) (A) (A) (A) (A) (A)
                 (A) (A) (A) (A) (A) (A) (A) (A) (A) (A) (A) (A)
                 (A) (A) (A) (A) (A) (A) (A) (A) (A) (A) (A) (A)
                 (A) (A) (A) (A) (A) (A) (A) (A) (A) (A) (A) (A)
                 (A) (A) (A) (A) (A) (A) (A) (A) (A) (A) (A) (A)
                 (A) (A) (A) (A) (A) (A) (A) (A) (A) (A) (A) (A)
                 (A) (A) (A) (A) (A) (A) (A) (A) (A) (A) (A) (A)
                 (A) (A) (A) (A) (A) (A) (A) (A) (A) (A) (A) (A)
                 (A) (A) (A) (A) (A) (A) (A) (A) (A) (A) (A) (A)
                 (A) (A) (A) (A) (A) (A) (A) (A) (A) (A) (A) (A)
                 (A) (A) (A) (A) (A) (A) (A) (A) (A) (A) (A) (A)
                 (A) (A) (A) (A) (A) (A) (A) (A) (A) (A) (A) (A)
                 (A) (A) (A) (A) (A) (A) (A) (A) (A) (A) (A) (A)
                 (A) (A) (A) (A) (A) (A) (A) (A) (A) (A) (A) (A)
                 (A) (A) (A) (A) (A) (A) (A) (A) (A) (A) (A) (A)
                 (A) (A) (A) (A) (A) (A) (A) (A) (A) (A) (A) (A)
                 (A) (A) (A) (A) (A) (A) (A) (A) (A) (A) (A) (A)
                 (A) (A) (A) (A) (A) (A) (A) (A) (A) (A) (A) (A)
                 (A) (A) (A) (A) (A) (A) (A) (A) (A) (A) (A) (A)
                 (A) (A) (A) (A) (A) (A) (A) (A) (A) (A) (A) (A)
                 (A) (A) (A) (A) (A) (A) (A) (A) (A) (A) (A) (A)
                 (A) (A) (A) (A) (A) (A) (A) (A) (A) (A) (A) (A)
                 (A) (A) (A) (A) (A) (A) (A) (A) (A) (A) (A) (A)
                 (A) (A) (A) (A) (A) (A) (A) (A) (A) (A) (A) (A)
                 (A) (A) (A) (A) (A) (A) (A) (A) (A) (A) (A) (A)
                 (A) (A) (A) (A) (A) (A) (A) (A) (A) (A) (A) (A)
 The electronic state is 1-A.
 Alpha  occ. eigenvalues --  -89.86498 -25.22943 -25.22350 -25.22340 -19.48901
 Alpha  occ. eigenvalues --  -19.47076 -19.46568 -14.66542 -14.64728 -10.74385
 Alpha  occ. eigenvalues --  -10.55833 -10.51730 -10.50282 -10.48847 -10.47054
 Alpha  occ. eigenvalues --  -10.46872 -10.46849 -10.45370 -10.44968 -10.44689
 Alpha  occ. eigenvalues --  -10.44552 -10.42946 -10.42907  -8.20956  -6.13054
 Alpha  occ. eigenvalues --   -6.12772  -6.12350  -1.39169  -1.30008  -1.29577
 Alpha  occ. eigenvalues --   -1.05018  -1.03160  -0.93733  -0.93267  -0.90421
 Alpha  occ. eigenvalues --   -0.86806  -0.81236  -0.78264  -0.75154  -0.74981
 Alpha  occ. eigenvalues --   -0.73944  -0.69681  -0.66928  -0.61831  -0.61463
 Alpha  occ. eigenvalues --   -0.61341  -0.61068  -0.59938  -0.57921  -0.55493
 Alpha  occ. eigenvalues --   -0.54551  -0.50724  -0.50092  -0.49573  -0.49406
 Alpha  occ. eigenvalues --   -0.46356  -0.45741  -0.45329  -0.45039  -0.43914
 Alpha  occ. eigenvalues --   -0.43391  -0.42842  -0.41934  -0.41506  -0.40650
 Alpha  occ. eigenvalues --   -0.40592  -0.39946  -0.39697  -0.38558  -0.37695
 Alpha  occ. eigenvalues --   -0.37159  -0.36184  -0.35993  -0.34051  -0.33712
 Alpha  occ. eigenvalues --   -0.33542  -0.32682  -0.31735  -0.31153  -0.30770
 Alpha  occ. eigenvalues --   -0.30125  -0.29818  -0.28795  -0.26529  -0.23807
 Alpha  occ. eigenvalues --   -0.22378  -0.21474  -0.19998  -0.19395  -0.19323
 Alpha  occ. eigenvalues --   -0.18792  -0.15372
 Alpha virt. eigenvalues --    0.09479   0.09853   0.10200   0.10752   0.11182
 Alpha virt. eigenvalues --    0.11583   0.11648   0.11949   0.12448   0.13175
 Alpha virt. eigenvalues --    0.13203   0.13467   0.13818   0.14429   0.14752
 Alpha virt. eigenvalues --    0.15048   0.15337   0.15703   0.16075   0.16262
 Alpha virt. eigenvalues --    0.16675   0.17270   0.17805   0.17868   0.18380
 Alpha virt. eigenvalues --    0.18825   0.19179   0.19593   0.20027   0.20187
 Alpha virt. eigenvalues --    0.20901   0.20982   0.21286   0.21811   0.22082
 Alpha virt. eigenvalues --    0.22282   0.22922   0.23200   0.23812   0.24095
 Alpha virt. eigenvalues --    0.24405   0.24626   0.25496   0.25759   0.26106
 Alpha virt. eigenvalues --    0.26834   0.27404   0.27855   0.28109   0.28523
 Alpha virt. eigenvalues --    0.28995   0.29346   0.29678   0.30058   0.30549
 Alpha virt. eigenvalues --    0.31215   0.31742   0.32297   0.32511   0.32596
 Alpha virt. eigenvalues --    0.33172   0.33409   0.33455   0.34205   0.34350
 Alpha virt. eigenvalues --    0.34561   0.34692   0.34983   0.35062   0.35563
 Alpha virt. eigenvalues --    0.35964   0.36153   0.36311   0.36607   0.37101
 Alpha virt. eigenvalues --    0.37287   0.37654   0.38199   0.38921   0.39218
 Alpha virt. eigenvalues --    0.39345   0.39521   0.39726   0.40383   0.40784
 Alpha virt. eigenvalues --    0.41022   0.41238   0.42078   0.42370   0.42486
 Alpha virt. eigenvalues --    0.42679   0.43331   0.43714   0.43948   0.44236
 Alpha virt. eigenvalues --    0.44498   0.45217   0.45396   0.45703   0.45956
 Alpha virt. eigenvalues --    0.46285   0.46471   0.46735   0.47466   0.47584
 Alpha virt. eigenvalues --    0.48041   0.48327   0.48590   0.48957   0.49682
 Alpha virt. eigenvalues --    0.49814   0.50550   0.51101   0.51771   0.52730
 Alpha virt. eigenvalues --    0.53401   0.54296   0.54837   0.55855   0.55898
 Alpha virt. eigenvalues --    0.57009   0.57199   0.58408   0.58706   0.59342
 Alpha virt. eigenvalues --    0.60912   0.61440   0.62288   0.64289   0.64770
 Alpha virt. eigenvalues --    0.65745   0.66396   0.68130   0.69018   0.71156
 Alpha virt. eigenvalues --    0.71851   0.72974   0.74870   0.75611   0.78246
 Alpha virt. eigenvalues --    0.79843   0.80742   0.81153   0.81573   0.82219
 Alpha virt. eigenvalues --    0.83723   0.84607   0.85169   0.85936   0.86396
 Alpha virt. eigenvalues --    0.86640   0.87048   0.87270   0.88218   0.88783
 Alpha virt. eigenvalues --    0.89918   0.91497   0.92490   0.92871   0.93178
 Alpha virt. eigenvalues --    0.94060   0.95382   0.96063   0.96816   0.97704
 Alpha virt. eigenvalues --    0.98033   0.98723   0.99715   1.00471   1.01618
 Alpha virt. eigenvalues --    1.03182   1.04280   1.04482   1.06844   1.07703
 Alpha virt. eigenvalues --    1.08395   1.09070   1.09489   1.10134   1.10539
 Alpha virt. eigenvalues --    1.11248   1.11873   1.12225   1.13009   1.14372
 Alpha virt. eigenvalues --    1.15304   1.16991   1.17745   1.18471   1.18627
 Alpha virt. eigenvalues --    1.18985   1.20633   1.20707   1.21739   1.23287
 Alpha virt. eigenvalues --    1.24194   1.24899   1.27270   1.28193   1.28765
 Alpha virt. eigenvalues --    1.29273   1.29800   1.32867   1.33756   1.34725
 Alpha virt. eigenvalues --    1.35916   1.36472   1.37292   1.38847   1.39626
 Alpha virt. eigenvalues --    1.40898   1.42672   1.43987   1.44989   1.45375
 Alpha virt. eigenvalues --    1.47852   1.48491   1.48882   1.50479   1.50949
 Alpha virt. eigenvalues --    1.51480   1.52122   1.52597   1.53459   1.54337
 Alpha virt. eigenvalues --    1.55934   1.56285   1.56467   1.57126   1.58745
 Alpha virt. eigenvalues --    1.59202   1.60718   1.61979   1.62421   1.63620
 Alpha virt. eigenvalues --    1.65057   1.65389   1.66196   1.67374   1.67840
 Alpha virt. eigenvalues --    1.69552   1.69756   1.70916   1.71893   1.73716
 Alpha virt. eigenvalues --    1.75136   1.76828   1.77265   1.78388   1.79072
 Alpha virt. eigenvalues --    1.79884   1.81267   1.82381   1.82900   1.83720
 Alpha virt. eigenvalues --    1.85465   1.86608   1.88346   1.92115   1.93205
 Alpha virt. eigenvalues --    1.95461   1.96394   1.97222   1.97653   1.98266
 Alpha virt. eigenvalues --    1.98558   1.98601   1.99168   1.99391   1.99653
 Alpha virt. eigenvalues --    2.00705   2.01571   2.03266   2.03673   2.05643
 Alpha virt. eigenvalues --    2.06598   2.07322   2.07667   2.07959   2.08749
 Alpha virt. eigenvalues --    2.09416   2.10569   2.12221   2.13727   2.14245
 Alpha virt. eigenvalues --    2.14796   2.15832   2.17264   2.17585   2.18298
 Alpha virt. eigenvalues --    2.19137   2.19745   2.20430   2.21377   2.21649
 Alpha virt. eigenvalues --    2.22866   2.23417   2.24553   2.25392   2.26700
 Alpha virt. eigenvalues --    2.28447   2.28992   2.29655   2.30409   2.32233
 Alpha virt. eigenvalues --    2.33396   2.35047   2.36727   2.37420   2.38823
 Alpha virt. eigenvalues --    2.39827   2.41134   2.41567   2.42461   2.43333
 Alpha virt. eigenvalues --    2.44582   2.46753   2.47052   2.49485   2.49798
 Alpha virt. eigenvalues --    2.50652   2.51040   2.54439   2.55879   2.57520
 Alpha virt. eigenvalues --    2.60444   2.65687   2.66018   2.67277   2.70375
 Alpha virt. eigenvalues --    2.73353   2.75432   2.77018   2.77593   2.79225
 Alpha virt. eigenvalues --    2.79431   2.82231   2.83470   2.85530   2.87129
 Alpha virt. eigenvalues --    2.88891   2.89702   2.89910   2.91618   2.92214
 Alpha virt. eigenvalues --    2.93535   2.95789   3.03464   3.06867   3.11390
 Alpha virt. eigenvalues --    3.16617   3.24009   3.26545   3.27403   3.28945
 Alpha virt. eigenvalues --    3.30770   3.34197   3.35567   3.41622   3.47906
 Alpha virt. eigenvalues --    3.54004   4.11535   4.35707   4.37119   4.39915
 Alpha virt. eigenvalues --    4.42565   4.44193   4.52360   4.53704   4.56382
 Alpha virt. eigenvalues --    4.57037   4.59033   4.60700   4.61378   4.65399
 Alpha virt. eigenvalues --    4.70570   4.74313   4.81711   4.87555   4.88960
 Alpha virt. eigenvalues --    5.00978   5.66997   5.76166   6.52529
          Condensed to atoms (all electrons):
               1          2          3          4          5          6
     1  C    5.944322  -0.331422   0.074647  -0.027428  -0.073297  -0.000671
     2  C   -0.331422   6.616119  -0.738694  -0.071183   0.312308   0.027364
     3  C    0.074647  -0.738694   7.584078   0.380804  -0.878919  -0.100956
     4  N   -0.027428  -0.071183   0.380804   7.871956   0.509039  -0.186344
     5  C   -0.073297   0.312308  -0.878919   0.509039   7.364051   0.622276
     6  O   -0.000671   0.027364  -0.100956  -0.186344   0.622276   8.344065
     7  N   -0.003815   0.031593  -0.191947  -0.368049   0.117400  -0.046847
     8  C   -0.005471   0.026243  -0.462241  -0.188857  -1.150108  -0.576071
     9  C   -0.005059  -0.007425  -0.054610   0.035151   1.465679   0.529841
    10  C   -0.002656   0.006297  -0.139231  -0.134552  -1.799818  -0.173248
    11  C   -0.000116  -0.001236   0.037449   0.013570   0.578025  -0.025117
    12  C   -0.000329  -0.000294  -0.031258  -0.013175  -0.410951   0.019459
    13  C   -0.000735   0.000066  -0.113378  -0.030316  -1.256507   0.178182
    14  H    0.466641  -0.142372   0.031158   0.000360  -0.002081   0.000002
    15  H    0.413418  -0.061456  -0.005910  -0.000033   0.000756  -0.000010
    16  H    0.428397  -0.066591  -0.014135   0.000370  -0.000958  -0.000022
    17  H   -0.029035   0.436558  -0.089596   0.006205  -0.002544  -0.000109
    18  H   -0.042720   0.432875  -0.074851   0.004279  -0.001823  -0.000114
    19  H   -0.005656  -0.050344   0.503089  -0.049954  -0.075508  -0.000333
    20  H   -0.017579  -0.056887   0.445587  -0.057222  -0.015209   0.000648
    21  H    0.004829  -0.002293  -0.012958   0.147450  -0.015921   0.003074
    22  H    0.000011  -0.001585  -0.000263   0.011043  -0.029270   0.003459
    23  H    0.000015   0.000031   0.002338   0.000749   0.018600  -0.006503
    24  H   -0.000002   0.000022   0.000022   0.000943   0.009390   0.000089
    25  H    0.000000   0.000000   0.000031   0.000008   0.003489  -0.000002
    26  S   -0.000009  -0.000014  -0.001990  -0.000669  -0.067315   0.000240
    27  C    0.000001   0.000000   0.000173   0.000042   0.008400   0.000043
    28  F   -0.000000  -0.000000  -0.000001   0.000000  -0.000284   0.000000
    29  F    0.000000  -0.000000   0.000000  -0.000000  -0.000002   0.000000
    30  F   -0.000000  -0.000000  -0.000004  -0.000001  -0.000865  -0.000001
    31  H   -0.000000   0.000001  -0.000007  -0.000004   0.000750   0.000257
    32  O    0.010025   0.007212  -0.007999  -0.036174  -0.015470  -0.000139
    33  O   -0.001127  -0.007057   0.013978   0.011880   0.000634   0.000123
    34  C   -0.006216  -0.010164   0.012384  -0.008226  -0.024703  -0.001954
    35  C    0.006142  -0.008912   0.048234  -0.033341  -0.037754  -0.001365
    36  C   -0.001071  -0.000977  -0.003634   0.004081   0.002135   0.000061
    37  H    0.000037   0.000047   0.000174  -0.000178  -0.000347  -0.000000
    38  H    0.000053   0.000169   0.000063  -0.000201  -0.000271  -0.000000
    39  H    0.000001   0.000026  -0.000028  -0.000015   0.000016  -0.000000
    40  H    0.000000   0.000006  -0.000014  -0.000006   0.000018   0.000000
    41  H    0.000001   0.000023  -0.000026  -0.000013  -0.000018  -0.000000
               7          8          9         10         11         12
     1  C   -0.003815  -0.005471  -0.005059  -0.002656  -0.000116  -0.000329
     2  C    0.031593   0.026243  -0.007425   0.006297  -0.001236  -0.000294
     3  C   -0.191947  -0.462241  -0.054610  -0.139231   0.037449  -0.031258
     4  N   -0.368049  -0.188857   0.035151  -0.134552   0.013570  -0.013175
     5  C    0.117400  -1.150108   1.465679  -1.799818   0.578025  -0.410951
     6  O   -0.046847  -0.576071   0.529841  -0.173248  -0.025117   0.019459
     7  N    7.939618   0.322316  -0.125409  -0.052818   0.038802  -0.050265
     8  C    0.322316  15.094578  -1.259056   0.059131  -1.100484  -1.801839
     9  C   -0.125409  -1.259056  17.500387  -8.881774   1.974264  -1.434500
    10  C   -0.052818   0.059131  -8.881774  17.237178  -2.659644   0.101594
    11  C    0.038802  -1.100484   1.974264  -2.659644  11.005708   0.461553
    12  C   -0.050265  -1.801839  -1.434500   0.101594   0.461553   7.814407
    13  C   -0.012182  -2.576867  -3.937669   2.613955  -4.398310   1.638001
    14  H    0.000013  -0.000035  -0.000004  -0.000004  -0.000000  -0.000000
    15  H    0.000021   0.000024  -0.000023   0.000005   0.000000  -0.000000
    16  H    0.000025  -0.000060  -0.000016   0.000001   0.000000  -0.000000
    17  H    0.000112  -0.001443  -0.000053   0.000064   0.000010  -0.000004
    18  H   -0.000292  -0.000428  -0.000175   0.000157   0.000006  -0.000001
    19  H   -0.001422  -0.009737  -0.002671  -0.000137   0.000159  -0.000077
    20  H   -0.000944   0.005694  -0.002528   0.000787   0.000002   0.000037
    21  H   -0.000619   0.007218  -0.009095   0.002235  -0.000019  -0.000294
    22  H    0.095751   0.016621   0.087695  -0.100483   0.004232   0.007295
    23  H   -0.018842   0.028330   0.227721   0.026176  -0.025674   0.019263
    24  H   -0.012323   0.115092   0.071284   0.121866   0.021424   0.007242
    25  H   -0.000069   0.047036  -0.013948  -0.031093   0.272744   0.015543
    26  S   -0.004734  -0.365577  -0.396155   0.392137  -0.515210  -0.087542
    27  C    0.000967   0.066762   0.106157  -0.026946   0.102919  -0.134388
    28  F    0.000023  -0.005656   0.009651  -0.019036   0.063086   0.025697
    29  F    0.000001  -0.000829  -0.002621  -0.002201   0.002465   0.008176
    30  F   -0.000011  -0.008352  -0.046493   0.021156  -0.075967   0.028746
    31  H   -0.000862   0.000357   0.032068  -0.040049   0.041600   0.054097
    32  O    0.009086   0.003174  -0.013301   0.006078  -0.006389  -0.000517
    33  O    0.008385  -0.294078  -0.013737   0.225894   0.062233   0.001351
    34  C   -0.004774   0.097415  -0.041994  -0.014400  -0.058274  -0.003475
    35  C   -0.031508  -0.054774  -0.026899   0.040824   0.017674  -0.002889
    36  C    0.004174  -0.024945   0.001394   0.008452   0.016825   0.001943
    37  H    0.000132  -0.000903  -0.000119   0.000881   0.000012  -0.000002
    38  H    0.000132  -0.000871  -0.000104   0.000787  -0.000003  -0.000003
    39  H   -0.000061  -0.000497  -0.000013  -0.000041   0.000036  -0.000021
    40  H    0.000033   0.000034  -0.000002  -0.000056  -0.000102   0.000003
    41  H   -0.000068  -0.000446  -0.000020  -0.000026   0.000060  -0.000012
              13         14         15         16         17         18
     1  C   -0.000735   0.466641   0.413418   0.428397  -0.029035  -0.042720
     2  C    0.000066  -0.142372  -0.061456  -0.066591   0.436558   0.432875
     3  C   -0.113378   0.031158  -0.005910  -0.014135  -0.089596  -0.074851
     4  N   -0.030316   0.000360  -0.000033   0.000370   0.006205   0.004279
     5  C   -1.256507  -0.002081   0.000756  -0.000958  -0.002544  -0.001823
     6  O    0.178182   0.000002  -0.000010  -0.000022  -0.000109  -0.000114
     7  N   -0.012182   0.000013   0.000021   0.000025   0.000112  -0.000292
     8  C   -2.576867  -0.000035   0.000024  -0.000060  -0.001443  -0.000428
     9  C   -3.937669  -0.000004  -0.000023  -0.000016  -0.000053  -0.000175
    10  C    2.613955  -0.000004   0.000005   0.000001   0.000064   0.000157
    11  C   -4.398310  -0.000000   0.000000   0.000000   0.000010   0.000006
    12  C    1.638001  -0.000000  -0.000000  -0.000000  -0.000004  -0.000001
    13  C   13.997650  -0.000000  -0.000001  -0.000002  -0.000012  -0.000008
    14  H   -0.000000   0.510131  -0.027667  -0.027766  -0.002968  -0.003023
    15  H   -0.000001  -0.027667   0.513467  -0.033688  -0.004418   0.003850
    16  H   -0.000002  -0.027766  -0.033688   0.513894   0.003800  -0.004546
    17  H   -0.000012  -0.002968  -0.004418   0.003800   0.477012  -0.031569
    18  H   -0.000008  -0.003023   0.003850  -0.004546  -0.031569   0.483795
    19  H   -0.000742  -0.000072  -0.000336   0.002884   0.004202  -0.005572
    20  H   -0.000069  -0.000076   0.002875  -0.000368  -0.005491   0.004296
    21  H   -0.000904   0.000000  -0.000002  -0.000000   0.001104   0.000584
    22  H    0.005058  -0.000000  -0.000000  -0.000000   0.000002   0.000001
    23  H    0.027053   0.000000   0.000000  -0.000000  -0.000000  -0.000000
    24  H   -0.046632   0.000000   0.000000   0.000000  -0.000000  -0.000000
    25  H    0.025415  -0.000000   0.000000   0.000000   0.000000  -0.000000
    26  S    0.297860  -0.000000  -0.000000  -0.000000  -0.000000  -0.000000
    27  C   -0.013932   0.000000  -0.000000   0.000000   0.000000  -0.000000
    28  F   -0.064795   0.000000   0.000000  -0.000000   0.000000   0.000000
    29  F    0.002682   0.000000   0.000000   0.000000   0.000000  -0.000000
    30  F    0.090017   0.000000   0.000000   0.000000   0.000000   0.000000
    31  H    0.223814  -0.000000   0.000000   0.000000   0.000000  -0.000000
    32  O    0.001364  -0.000033  -0.000004  -0.000025  -0.003437  -0.002014
    33  O    0.002333  -0.000000   0.000000   0.000000  -0.000042   0.000005
    34  C    0.004683  -0.000160   0.000003  -0.000047  -0.001180  -0.000322
    35  C   -0.007465   0.000081  -0.000018  -0.000014  -0.000164  -0.000039
    36  C   -0.000388  -0.000001   0.000000   0.000000  -0.000032  -0.000034
    37  H   -0.000004  -0.000000  -0.000000   0.000000  -0.000000   0.000000
    38  H   -0.000003  -0.000000   0.000000  -0.000000  -0.000000  -0.000000
    39  H    0.000021   0.000000  -0.000000  -0.000000   0.000000  -0.000000
    40  H    0.000002   0.000000  -0.000000  -0.000000  -0.000000  -0.000000
    41  H    0.000019   0.000000  -0.000000  -0.000000  -0.000000   0.000000
              19         20         21         22         23         24
     1  C   -0.005656  -0.017579   0.004829   0.000011   0.000015  -0.000002
     2  C   -0.050344  -0.056887  -0.002293  -0.001585   0.000031   0.000022
     3  C    0.503089   0.445587  -0.012958  -0.000263   0.002338   0.000022
     4  N   -0.049954  -0.057222   0.147450   0.011043   0.000749   0.000943
     5  C   -0.075508  -0.015209  -0.015921  -0.029270   0.018600   0.009390
     6  O   -0.000333   0.000648   0.003074   0.003459  -0.006503   0.000089
     7  N   -0.001422  -0.000944  -0.000619   0.095751  -0.018842  -0.012323
     8  C   -0.009737   0.005694   0.007218   0.016621   0.028330   0.115092
     9  C   -0.002671  -0.002528  -0.009095   0.087695   0.227721   0.071284
    10  C   -0.000137   0.000787   0.002235  -0.100483   0.026176   0.121866
    11  C    0.000159   0.000002  -0.000019   0.004232  -0.025674   0.021424
    12  C   -0.000077   0.000037  -0.000294   0.007295   0.019263   0.007242
    13  C   -0.000742  -0.000069  -0.000904   0.005058   0.027053  -0.046632
    14  H   -0.000072  -0.000076   0.000000  -0.000000   0.000000   0.000000
    15  H   -0.000336   0.002875  -0.000002  -0.000000   0.000000   0.000000
    16  H    0.002884  -0.000368  -0.000000  -0.000000  -0.000000   0.000000
    17  H    0.004202  -0.005491   0.001104   0.000002  -0.000000  -0.000000
    18  H   -0.005572   0.004296   0.000584   0.000001  -0.000000  -0.000000
    19  H    0.527734  -0.049255   0.001636   0.000010  -0.000001   0.000000
    20  H   -0.049255   0.535404   0.001492   0.000006  -0.000000   0.000000
    21  H    0.001636   0.001492   0.244880   0.009297   0.000001   0.000003
    22  H    0.000010   0.000006   0.009297   0.266840  -0.000200   0.007410
    23  H   -0.000001  -0.000000   0.000001  -0.000200   0.436655  -0.000114
    24  H    0.000000   0.000000   0.000003   0.007410  -0.000114   0.435530
    25  H    0.000000  -0.000000   0.000000  -0.000010   0.000013  -0.003890
    26  S   -0.000002   0.000001  -0.000005   0.000327  -0.001564  -0.000189
    27  C    0.000000  -0.000000   0.000000  -0.000021  -0.000198  -0.000202
    28  F    0.000000  -0.000000  -0.000000   0.000000  -0.000001  -0.000004
    29  F    0.000000  -0.000000  -0.000000  -0.000000  -0.000000  -0.000000
    30  F    0.000000  -0.000000  -0.000000   0.000000  -0.000001  -0.000001
    31  H    0.000000  -0.000000  -0.000000   0.000002  -0.003983   0.000014
    32  O   -0.000179   0.000034   0.081371  -0.002237   0.000001  -0.000039
    33  O   -0.000010  -0.000006  -0.000269   0.095049   0.000014  -0.002640
    34  C    0.000827   0.000661  -0.004810  -0.010662   0.000091  -0.001013
    35  C    0.000036   0.000019   0.019003   0.021013   0.000008   0.002515
    36  C    0.000004   0.000002  -0.003334  -0.002943  -0.000001  -0.000701
    37  H   -0.000000  -0.000000  -0.000004  -0.000027   0.000000   0.000000
    38  H   -0.000000   0.000000  -0.000003  -0.000027   0.000000   0.000000
    39  H   -0.000000   0.000000  -0.000000  -0.000014   0.000000   0.000017
    40  H   -0.000000  -0.000000   0.000000  -0.000000  -0.000000  -0.000000
    41  H    0.000000  -0.000000  -0.000000  -0.000014   0.000000   0.000021
              25         26         27         28         29         30
     1  C    0.000000  -0.000009   0.000001  -0.000000   0.000000  -0.000000
     2  C    0.000000  -0.000014   0.000000  -0.000000  -0.000000  -0.000000
     3  C    0.000031  -0.001990   0.000173  -0.000001   0.000000  -0.000004
     4  N    0.000008  -0.000669   0.000042   0.000000  -0.000000  -0.000001
     5  C    0.003489  -0.067315   0.008400  -0.000284  -0.000002  -0.000865
     6  O   -0.000002   0.000240   0.000043   0.000000   0.000000  -0.000001
     7  N   -0.000069  -0.004734   0.000967   0.000023   0.000001  -0.000011
     8  C    0.047036  -0.365577   0.066762  -0.005656  -0.000829  -0.008352
     9  C   -0.013948  -0.396155   0.106157   0.009651  -0.002621  -0.046493
    10  C   -0.031093   0.392137  -0.026946  -0.019036  -0.002201   0.021156
    11  C    0.272744  -0.515210   0.102919   0.063086   0.002465  -0.075967
    12  C    0.015543  -0.087542  -0.134388   0.025697   0.008176   0.028746
    13  C    0.025415   0.297860  -0.013932  -0.064795   0.002682   0.090017
    14  H   -0.000000  -0.000000   0.000000   0.000000   0.000000   0.000000
    15  H    0.000000  -0.000000  -0.000000   0.000000   0.000000   0.000000
    16  H    0.000000  -0.000000   0.000000  -0.000000   0.000000   0.000000
    17  H    0.000000  -0.000000   0.000000   0.000000   0.000000   0.000000
    18  H   -0.000000  -0.000000  -0.000000   0.000000  -0.000000   0.000000
    19  H    0.000000  -0.000002   0.000000   0.000000   0.000000   0.000000
    20  H   -0.000000   0.000001  -0.000000  -0.000000  -0.000000  -0.000000
    21  H    0.000000  -0.000005   0.000000  -0.000000  -0.000000  -0.000000
    22  H   -0.000010   0.000327  -0.000021   0.000000  -0.000000   0.000000
    23  H    0.000013  -0.001564  -0.000198  -0.000001  -0.000000  -0.000001
    24  H   -0.003890  -0.000189  -0.000202  -0.000004  -0.000000  -0.000001
    25  H    0.493811  -0.018041   0.000985  -0.000508  -0.000077   0.000003
    26  S   -0.018041  16.428728   0.148401  -0.084004  -0.087936  -0.082136
    27  C    0.000985   0.148401   4.755053   0.144884   0.148259   0.143738
    28  F   -0.000508  -0.084004   0.144884   9.308883  -0.036261  -0.064878
    29  F   -0.000077  -0.087936   0.148259  -0.036261   9.310764  -0.035971
    30  F    0.000003  -0.082136   0.143738  -0.064878  -0.035971   9.308800
    31  H   -0.000153  -0.010693  -0.000429   0.000010  -0.000073  -0.000468
    32  O    0.000000  -0.000017   0.000001   0.000000   0.000000  -0.000000
    33  O    0.000135   0.000137  -0.000013  -0.000001   0.000000   0.000000
    34  C    0.000098  -0.000126   0.000041  -0.000008  -0.000000   0.000000
    35  C   -0.000015  -0.000361   0.000044  -0.000000   0.000000  -0.000000
    36  C   -0.000022   0.000153  -0.000016   0.000000  -0.000000   0.000000
    37  H   -0.000000  -0.000000   0.000000  -0.000000   0.000000   0.000000
    38  H   -0.000000  -0.000000   0.000000   0.000000   0.000000  -0.000000
    39  H    0.000000  -0.000001   0.000000   0.000000   0.000000  -0.000000
    40  H    0.000000  -0.000000   0.000000   0.000000  -0.000000  -0.000000
    41  H   -0.000000  -0.000001  -0.000000  -0.000000   0.000000   0.000000
              31         32         33         34         35         36
     1  C   -0.000000   0.010025  -0.001127  -0.006216   0.006142  -0.001071
     2  C    0.000001   0.007212  -0.007057  -0.010164  -0.008912  -0.000977
     3  C   -0.000007  -0.007999   0.013978   0.012384   0.048234  -0.003634
     4  N   -0.000004  -0.036174   0.011880  -0.008226  -0.033341   0.004081
     5  C    0.000750  -0.015470   0.000634  -0.024703  -0.037754   0.002135
     6  O    0.000257  -0.000139   0.000123  -0.001954  -0.001365   0.000061
     7  N   -0.000862   0.009086   0.008385  -0.004774  -0.031508   0.004174
     8  C    0.000357   0.003174  -0.294078   0.097415  -0.054774  -0.024945
     9  C    0.032068  -0.013301  -0.013737  -0.041994  -0.026899   0.001394
    10  C   -0.040049   0.006078   0.225894  -0.014400   0.040824   0.008452
    11  C    0.041600  -0.006389   0.062233  -0.058274   0.017674   0.016825
    12  C    0.054097  -0.000517   0.001351  -0.003475  -0.002889   0.001943
    13  C    0.223814   0.001364   0.002333   0.004683  -0.007465  -0.000388
    14  H   -0.000000  -0.000033  -0.000000  -0.000160   0.000081  -0.000001
    15  H    0.000000  -0.000004   0.000000   0.000003  -0.000018   0.000000
    16  H    0.000000  -0.000025   0.000000  -0.000047  -0.000014   0.000000
    17  H    0.000000  -0.003437  -0.000042  -0.001180  -0.000164  -0.000032
    18  H   -0.000000  -0.002014   0.000005  -0.000322  -0.000039  -0.000034
    19  H    0.000000  -0.000179  -0.000010   0.000827   0.000036   0.000004
    20  H   -0.000000   0.000034  -0.000006   0.000661   0.000019   0.000002
    21  H   -0.000000   0.081371  -0.000269  -0.004810   0.019003  -0.003334
    22  H    0.000002  -0.002237   0.095049  -0.010662   0.021013  -0.002943
    23  H   -0.003983   0.000001   0.000014   0.000091   0.000008  -0.000001
    24  H    0.000014  -0.000039  -0.002640  -0.001013   0.002515  -0.000701
    25  H   -0.000153   0.000000   0.000135   0.000098  -0.000015  -0.000022
    26  S   -0.010693  -0.000017   0.000137  -0.000126  -0.000361   0.000153
    27  C   -0.000429   0.000001  -0.000013   0.000041   0.000044  -0.000016
    28  F    0.000010   0.000000  -0.000001  -0.000008  -0.000000   0.000000
    29  F   -0.000073   0.000000   0.000000  -0.000000   0.000000  -0.000000
    30  F   -0.000468  -0.000000   0.000000   0.000000  -0.000000   0.000000
    31  H    0.498916  -0.000000  -0.000001  -0.000002  -0.000000   0.000000
    32  O   -0.000000   8.527421  -0.189996   0.538049  -0.304412   0.035077
    33  O   -0.000001  -0.189996   8.565982   0.246488  -0.105753   0.062791
    34  C   -0.000002   0.538049   0.246488   5.781725  -1.066587   0.035659
    35  C   -0.000000  -0.304412  -0.105753  -1.066587   7.723266  -0.401336
    36  C    0.000000   0.035077   0.062791   0.035659  -0.401336   5.855725
    37  H    0.000000  -0.002653   0.002078  -0.085433   0.454919  -0.050296
    38  H    0.000000  -0.002219   0.001386  -0.083151   0.451557  -0.048970
    39  H   -0.000000   0.000164  -0.005131  -0.006344  -0.057805   0.421747
    40  H    0.000000  -0.000199   0.002035   0.036096  -0.084540   0.386979
    41  H   -0.000000   0.000127  -0.005036  -0.006238  -0.057426   0.421262
              37         38         39         40         41
     1  C    0.000037   0.000053   0.000001   0.000000   0.000001
     2  C    0.000047   0.000169   0.000026   0.000006   0.000023
     3  C    0.000174   0.000063  -0.000028  -0.000014  -0.000026
     4  N   -0.000178  -0.000201  -0.000015  -0.000006  -0.000013
     5  C   -0.000347  -0.000271   0.000016   0.000018  -0.000018
     6  O   -0.000000  -0.000000  -0.000000   0.000000  -0.000000
     7  N    0.000132   0.000132  -0.000061   0.000033  -0.000068
     8  C   -0.000903  -0.000871  -0.000497   0.000034  -0.000446
     9  C   -0.000119  -0.000104  -0.000013  -0.000002  -0.000020
    10  C    0.000881   0.000787  -0.000041  -0.000056  -0.000026
    11  C    0.000012  -0.000003   0.000036  -0.000102   0.000060
    12  C   -0.000002  -0.000003  -0.000021   0.000003  -0.000012
    13  C   -0.000004  -0.000003   0.000021   0.000002   0.000019
    14  H   -0.000000  -0.000000   0.000000   0.000000   0.000000
    15  H   -0.000000   0.000000  -0.000000  -0.000000  -0.000000
    16  H    0.000000  -0.000000  -0.000000  -0.000000  -0.000000
    17  H   -0.000000  -0.000000   0.000000  -0.000000  -0.000000
    18  H    0.000000  -0.000000  -0.000000  -0.000000   0.000000
    19  H   -0.000000  -0.000000  -0.000000  -0.000000   0.000000
    20  H   -0.000000   0.000000   0.000000  -0.000000  -0.000000
    21  H   -0.000004  -0.000003  -0.000000   0.000000  -0.000000
    22  H   -0.000027  -0.000027  -0.000014  -0.000000  -0.000014
    23  H    0.000000   0.000000   0.000000  -0.000000   0.000000
    24  H    0.000000   0.000000   0.000017  -0.000000   0.000021
    25  H   -0.000000  -0.000000   0.000000   0.000000  -0.000000
    26  S   -0.000000  -0.000000  -0.000001  -0.000000  -0.000001
    27  C    0.000000   0.000000   0.000000   0.000000  -0.000000
    28  F   -0.000000   0.000000   0.000000   0.000000  -0.000000
    29  F    0.000000   0.000000   0.000000  -0.000000   0.000000
    30  F    0.000000  -0.000000  -0.000000  -0.000000   0.000000
    31  H    0.000000   0.000000  -0.000000   0.000000  -0.000000
    32  O   -0.002653  -0.002219   0.000164  -0.000199   0.000127
    33  O    0.002078   0.001386  -0.005131   0.002035  -0.005036
    34  C   -0.085433  -0.083151  -0.006344   0.036096  -0.006238
    35  C    0.454919   0.451557  -0.057805  -0.084540  -0.057426
    36  C   -0.050296  -0.048970   0.421747   0.386979   0.421262
    37  H    0.505227  -0.030157  -0.003937  -0.002040   0.003701
    38  H   -0.030157   0.504992   0.003705  -0.002052  -0.003940
    39  H   -0.003937   0.003705   0.489628  -0.030134  -0.027117
    40  H   -0.002040  -0.002052  -0.030134   0.551512  -0.029985
    41  H    0.003701  -0.003940  -0.027117  -0.029985   0.487762
 Mulliken charges:
               1
     1  C   -0.794127
     2  C   -0.338058
     3  C   -0.211559
     4  N   -0.791991
     5  C    0.846977
     6  O   -0.609378
     7  N   -0.640728
     8  C   -0.000401
     9  C    0.234181
    10  C   -0.787444
    11  C    0.151687
    12  C   -0.232572
    13  C   -0.647257
    14  H    0.197878
    15  H    0.199149
    16  H    0.198867
    17  H    0.243027
    18  H    0.237682
    19  H    0.211425
    20  H    0.208090
    21  H    0.526356
    22  H    0.516637
    23  H    0.270024
    24  H    0.274867
    25  H    0.208516
    26  S    0.456307
    27  C    0.549275
    28  F   -0.276797
    29  F   -0.306376
    30  F   -0.277313
    31  H    0.204839
    32  O   -0.631730
    33  O   -0.678013
    34  C    0.686045
    35  C   -0.501959
    36  C   -0.719765
    37  H    0.208894
    38  H    0.209129
    39  H    0.215795
    40  H    0.172410
    41  H    0.217410
 Sum of Mulliken charges =  -1.00000
 Mulliken charges with hydrogens summed into heavy atoms:
               1
     1  C   -0.198233
     2  C    0.142651
     3  C    0.207956
     4  N   -0.265635
     5  C    0.846977
     6  O   -0.609378
     7  N   -0.124091
     8  C   -0.000401
     9  C    0.504204
    10  C   -0.512577
    11  C    0.360203
    12  C   -0.232572
    13  C   -0.442418
    26  S    0.456307
    27  C    0.549275
    28  F   -0.276797
    29  F   -0.306376
    30  F   -0.277313
    32  O   -0.631730
    33  O   -0.678013
    34  C    0.686045
    35  C   -0.083936
    36  C   -0.114149
         Mulliken charges condensed to fragments:
      1     -0.178216
      2     -0.821784
 Electronic spatial extent (au):  <R**2>=          13759.8273
 Charge=             -1.0000 electrons
 Dipole moment (field-independent basis, Debye):
    X=             -3.6367    Y=             -0.2440    Z=             -0.2031  Tot=              3.6505
 Quadrupole moment (field-independent basis, Debye-Ang):
   XX=           -214.1631   YY=           -170.6880   ZZ=           -150.3343
   XY=             -6.4979   XZ=              2.0273   YZ=             -0.8143
 Traceless Quadrupole moment (field-independent basis, Debye-Ang):
   XX=            -35.7680   YY=              7.7071   ZZ=             28.0609
   XY=             -6.4979   XZ=              2.0273   YZ=             -0.8143
 Octapole moment (field-independent basis, Debye-Ang**2):
  XXX=            -51.8033  YYY=              1.8968  ZZZ=             29.2887  XYY=            -85.9406
  XXY=            -29.0322  XXZ=            -13.6767  XZZ=            -15.3043  YZZ=              1.2667
  YYZ=              9.2253  XYZ=             -2.4070
 Hexadecapole moment (field-independent basis, Debye-Ang**3):
 XXXX=         -15667.4254 YYYY=          -4078.1368 ZZZZ=           -521.0282 XXXY=            -77.6158
 XXXZ=            -95.2930 YYYX=             22.4855 YYYZ=             -1.8060 ZZZX=           -134.1419
 ZZZY=             -2.0642 XXYY=          -3078.4253 XXZZ=          -2407.1137 YYZZ=           -708.8796
 XXYZ=              2.3034 YYXZ=            -34.5914 ZZXY=              3.2554
 N-N= 2.061811663314D+03 E-N=-7.850947312786D+03  KE= 1.566155323604D+03
 CPIOFr:  IOpCl= 0 IRwI=-1 IRwCP=  731 ICalc= -1 LCPTot=      355249 Len1MO=      919082 IndFrg=      355249
 CPIOFr:  IOpCl= 0 IRwI=-1 IRwCP=  731 ICalc=  0 LCPTot=      355249 Len1MO=      919082 IndFrg=     1274331
 Counterpoise: doing DCBS calculation for fragment   1 NewBq=T
 Basis read from rwf:  (6D, 7F)
 There are   477 symmetry adapted cartesian basis functions of A   symmetry.
 There are   477 symmetry adapted basis functions of A   symmetry.
   477 basis functions,   832 primitive gaussians,   477 cartesian basis functions
    72 alpha electrons       72 beta electrons
       nuclear repulsion energy      1404.0874373686 Hartrees.
 NAtoms=   41 NActive=   41 NUniq=   41 SFac= 1.00D+00 NAtFMM=   60 NAOKFM=F Big=F
 Integral buffers will be    131072 words long.
 Raffenetti 2 integral format.
 Two-electron integral symmetry is turned on.
 One-electron integrals computed using PRISM.
 NBasis=   477 RedAO= T EigKep=  1.10D-06  NBF=   477
 NBsUse=   476 1.00D-06 EigRej=  7.51D-07 NBFU=   476
 ExpMin= 4.05D-02 ExpMax= 2.19D+04 ExpMxC= 3.30D+03 IAcc=3 IRadAn=         5 AccDes= 0.00D+00
 Harris functional with IExCor= 1009 and IRadAn=       5 diagonalized for initial guess.
 HarFok:  IExCor= 1009 AccDes= 0.00D+00 IRadAn=         5 IDoV= 1 UseB2=F ITyADJ=14
 ICtDFT=  3500011 ScaDFX=  1.000000  1.000000  1.000000  1.000000
 FoFCou: FMM=F IPFlag=           0 FMFlag=      100000 FMFlg1=           0
         NFxFlg=           0 DoJE=T BraDBF=F KetDBF=T FulRan=T
         wScrn=  0.000000 ICntrl=     500 IOpCl=  0 I1Cent=   200000004 NGrid=           0
         NMat0=    1 NMatS0=      1 NMatT0=    0 NMatD0=    1 NMtDS0=    0 NMtDT0=    0
 Petite list used in FoFCou.
 Requested convergence on RMS density matrix=1.00D-08 within 128 cycles.
 Requested convergence on MAX density matrix=1.00D-06.
 Requested convergence on             energy=1.00D-06.
 No special actions if energy rises.
 SCF Done:  E(RM062X) =  -1309.11020215     A.U. after   15 cycles
            NFock= 15  Conv=0.31D-08     -V/T= 2.0066

 **********************************************************************

            Population analysis using the SCF density.

 **********************************************************************

 Orbital symmetries:
       Occupied  (A) (A) (A) (A) (A) (A) (A) (A) (A) (A) (A) (A)
                 (A) (A) (A) (A) (A) (A) (A) (A) (A) (A) (A) (A)
                 (A) (A) (A) (A) (A) (A) (A) (A) (A) (A) (A) (A)
                 (A) (A) (A) (A) (A) (A) (A) (A) (A) (A) (A) (A)
                 (A) (A) (A) (A) (A) (A) (A) (A) (A) (A) (A) (A)
                 (A) (A) (A) (A) (A) (A) (A) (A) (A) (A) (A) (A)
       Virtual   (A) (A) (A) (A) (A) (A) (A) (A) (A) (A) (A) (A)
                 (A) (A) (A) (A) (A) (A) (A) (A) (A) (A) (A) (A)
                 (A) (A) (A) (A) (A) (A) (A) (A) (A) (A) (A) (A)
                 (A) (A) (A) (A) (A) (A) (A) (A) (A) (A) (A) (A)
                 (A) (A) (A) (A) (A) (A) (A) (A) (A) (A) (A) (A)
                 (A) (A) (A) (A) (A) (A) (A) (A) (A) (A) (A) (A)
                 (A) (A) (A) (A) (A) (A) (A) (A) (A) (A) (A) (A)
                 (A) (A) (A) (A) (A) (A) (A) (A) (A) (A) (A) (A)
                 (A) (A) (A) (A) (A) (A) (A) (A) (A) (A) (A) (A)
                 (A) (A) (A) (A) (A) (A) (A) (A) (A) (A) (A) (A)
                 (A) (A) (A) (A) (A) (A) (A) (A) (A) (A) (A) (A)
                 (A) (A) (A) (A) (A) (A) (A) (A) (A) (A) (A) (A)
                 (A) (A) (A) (A) (A) (A) (A) (A) (A) (A) (A) (A)
                 (A) (A) (A) (A) (A) (A) (A) (A) (A) (A) (A) (A)
                 (A) (A) (A) (A) (A) (A) (A) (A) (A) (A) (A) (A)
                 (A) (A) (A) (A) (A) (A) (A) (A) (A) (A) (A) (A)
                 (A) (A) (A) (A) (A) (A) (A) (A) (A) (A) (A) (A)
                 (A) (A) (A) (A) (A) (A) (A) (A) (A) (A) (A) (A)
                 (A) (A) (A) (A) (A) (A) (A) (A) (A) (A) (A) (A)
                 (A) (A) (A) (A) (A) (A) (A) (A) (A) (A) (A) (A)
                 (A) (A) (A) (A) (A) (A) (A) (A) (A) (A) (A) (A)
                 (A) (A) (A) (A) (A) (A) (A) (A) (A) (A) (A) (A)
                 (A) (A) (A) (A) (A) (A) (A) (A) (A) (A) (A) (A)
                 (A) (A) (A) (A) (A) (A) (A) (A) (A) (A) (A) (A)
                 (A) (A) (A) (A) (A) (A) (A) (A) (A) (A) (A) (A)
                 (A) (A) (A) (A) (A) (A) (A) (A) (A) (A) (A) (A)
                 (A) (A) (A) (A) (A) (A) (A) (A) (A) (A) (A) (A)
                 (A) (A) (A) (A) (A) (A) (A) (A) (A) (A) (A) (A)
                 (A) (A) (A) (A) (A) (A) (A) (A) (A) (A) (A) (A)
                 (A) (A) (A) (A) (A) (A) (A) (A) (A) (A) (A) (A)
                 (A) (A) (A) (A) (A) (A) (A) (A) (A) (A) (A) (A)
                 (A) (A) (A) (A) (A) (A) (A) (A) (A) (A) (A) (A)
                 (A) (A) (A) (A) (A) (A) (A) (A) (A) (A) (A) (A)
                 (A) (A) (A) (A) (A) (A) (A) (A)
 The electronic state is 1-A.
 Alpha  occ. eigenvalues --  -89.95162 -25.30343 -25.30211 -25.30121 -19.62377
 Alpha  occ. eigenvalues --  -14.82329 -14.80775 -10.82531 -10.70067 -10.62332
 Alpha  occ. eigenvalues --  -10.59595 -10.59314 -10.57726 -10.57305 -10.57283
 Alpha  occ. eigenvalues --  -10.56919 -10.56005 -10.55486  -8.29646  -6.21734
 Alpha  occ. eigenvalues --   -6.21471  -6.21018  -1.46856  -1.37531  -1.37385
 Alpha  occ. eigenvalues --   -1.18782  -1.07773  -1.04964  -0.97727  -0.91425
 Alpha  occ. eigenvalues --   -0.89844  -0.86313  -0.84526  -0.80032  -0.77375
 Alpha  occ. eigenvalues --   -0.73209  -0.71446  -0.70800  -0.69210  -0.69087
 Alpha  occ. eigenvalues --   -0.67853  -0.64475  -0.64304  -0.62628  -0.57564
 Alpha  occ. eigenvalues --   -0.57272  -0.57042  -0.56241  -0.54452  -0.53799
 Alpha  occ. eigenvalues --   -0.53622  -0.53121  -0.52837  -0.51308  -0.51018
 Alpha  occ. eigenvalues --   -0.50937  -0.49943  -0.48743  -0.48605  -0.46469
 Alpha  occ. eigenvalues --   -0.44620  -0.44434  -0.42505  -0.42177  -0.42063
 Alpha  occ. eigenvalues --   -0.41396  -0.38502  -0.35501  -0.33656  -0.32492
 Alpha  occ. eigenvalues --   -0.32303  -0.28072
 Alpha virt. eigenvalues --   -0.02505  -0.00631   0.00653   0.00950   0.01914
 Alpha virt. eigenvalues --    0.02226   0.02449   0.02841   0.03861   0.04063
 Alpha virt. eigenvalues --    0.04107   0.04504   0.05047   0.05346   0.05456
 Alpha virt. eigenvalues --    0.06191   0.06506   0.06605   0.07287   0.07629
 Alpha virt. eigenvalues --    0.07811   0.08331   0.08418   0.08757   0.08814
 Alpha virt. eigenvalues --    0.09264   0.09749   0.10042   0.10389   0.11175
 Alpha virt. eigenvalues --    0.11497   0.11710   0.11885   0.11975   0.12384
 Alpha virt. eigenvalues --    0.13245   0.13850   0.14006   0.14049   0.14782
 Alpha virt. eigenvalues --    0.15015   0.15321   0.15798   0.16073   0.16245
 Alpha virt. eigenvalues --    0.16689   0.17699   0.18116   0.18275   0.18497
 Alpha virt. eigenvalues --    0.19341   0.19417   0.19556   0.19995   0.20258
 Alpha virt. eigenvalues --    0.20382   0.20968   0.21161   0.21281   0.21610
 Alpha virt. eigenvalues --    0.22153   0.22907   0.23137   0.23294   0.23795
 Alpha virt. eigenvalues --    0.24085   0.24342   0.24445   0.24972   0.25086
 Alpha virt. eigenvalues --    0.25793   0.26038   0.26390   0.26774   0.26946
 Alpha virt. eigenvalues --    0.27374   0.27806   0.28024   0.28280   0.28747
 Alpha virt. eigenvalues --    0.29210   0.29355   0.29608   0.29687   0.30384
 Alpha virt. eigenvalues --    0.30716   0.31804   0.32126   0.32403   0.32804
 Alpha virt. eigenvalues --    0.32991   0.33263   0.33425   0.33976   0.34436
 Alpha virt. eigenvalues --    0.34614   0.34992   0.35233   0.36137   0.36721
 Alpha virt. eigenvalues --    0.37779   0.38195   0.38547   0.38832   0.39117
 Alpha virt. eigenvalues --    0.39425   0.39774   0.40203   0.40597   0.40760
 Alpha virt. eigenvalues --    0.40981   0.41819   0.42277   0.43006   0.44309
 Alpha virt. eigenvalues --    0.44611   0.45122   0.45704   0.46036   0.46313
 Alpha virt. eigenvalues --    0.48271   0.49252   0.49783   0.50402   0.51562
 Alpha virt. eigenvalues --    0.51873   0.52767   0.53535   0.55025   0.55591
 Alpha virt. eigenvalues --    0.56761   0.57832   0.58795   0.59640   0.60304
 Alpha virt. eigenvalues --    0.61869   0.64421   0.65363   0.65813   0.67238
 Alpha virt. eigenvalues --    0.67675   0.68671   0.69960   0.70820   0.71146
 Alpha virt. eigenvalues --    0.72505   0.73280   0.73891   0.74209   0.74584
 Alpha virt. eigenvalues --    0.74864   0.75126   0.75540   0.76114   0.76447
 Alpha virt. eigenvalues --    0.76938   0.78444   0.78940   0.80163   0.80481
 Alpha virt. eigenvalues --    0.81461   0.81965   0.83015   0.84118   0.85210
 Alpha virt. eigenvalues --    0.85279   0.86543   0.86956   0.88361   0.89105
 Alpha virt. eigenvalues --    0.89875   0.90026   0.91831   0.92066   0.93275
 Alpha virt. eigenvalues --    0.93667   0.94441   0.96444   0.97054   0.98009
 Alpha virt. eigenvalues --    0.99192   0.99747   1.00551   1.01738   1.02482
 Alpha virt. eigenvalues --    1.02718   1.03129   1.03370   1.04538   1.04772
 Alpha virt. eigenvalues --    1.05419   1.06710   1.08608   1.09213   1.09564
 Alpha virt. eigenvalues --    1.13073   1.13699   1.14331   1.16451   1.17378
 Alpha virt. eigenvalues --    1.18685   1.20048   1.20726   1.22964   1.23636
 Alpha virt. eigenvalues --    1.25857   1.26516   1.27305   1.28676   1.30298
 Alpha virt. eigenvalues --    1.31019   1.31625   1.32542   1.35089   1.35608
 Alpha virt. eigenvalues --    1.36974   1.38411   1.39473   1.41279   1.42062
 Alpha virt. eigenvalues --    1.43253   1.43798   1.44368   1.46493   1.47613
 Alpha virt. eigenvalues --    1.48046   1.50624   1.50807   1.53072   1.54282
 Alpha virt. eigenvalues --    1.55036   1.55725   1.56202   1.57949   1.58560
 Alpha virt. eigenvalues --    1.62621   1.66032   1.69231   1.69570   1.70129
 Alpha virt. eigenvalues --    1.71313   1.72654   1.74184   1.74899   1.75211
 Alpha virt. eigenvalues --    1.76350   1.78396   1.80539   1.85336   1.86367
 Alpha virt. eigenvalues --    1.86540   1.87686   1.88036   1.89320   1.90139
 Alpha virt. eigenvalues --    1.90683   1.90916   1.91231   1.91597   1.92457
 Alpha virt. eigenvalues --    1.93715   1.94685   1.95063   1.95558   1.97539
 Alpha virt. eigenvalues --    1.99403   2.01341   2.01524   2.01827   2.04212
 Alpha virt. eigenvalues --    2.04539   2.05073   2.05840   2.06753   2.09277
 Alpha virt. eigenvalues --    2.10768   2.11005   2.12357   2.13009   2.13811
 Alpha virt. eigenvalues --    2.14303   2.15278   2.15477   2.17839   2.18394
 Alpha virt. eigenvalues --    2.18827   2.19450   2.20020   2.20578   2.21568
 Alpha virt. eigenvalues --    2.22433   2.23384   2.24313   2.26044   2.27101
 Alpha virt. eigenvalues --    2.30863   2.33038   2.33412   2.33717   2.35062
 Alpha virt. eigenvalues --    2.35905   2.37143   2.38082   2.38961   2.40039
 Alpha virt. eigenvalues --    2.40153   2.40961   2.42006   2.43670   2.51617
 Alpha virt. eigenvalues --    2.53157   2.53899   2.58542   2.59296   2.60239
 Alpha virt. eigenvalues --    2.63008   2.64191   2.65376   2.66584   2.67700
 Alpha virt. eigenvalues --    2.68227   2.68633   2.71579   2.72479   2.74470
 Alpha virt. eigenvalues --    2.75238   2.75762   2.77100   2.78311   2.79171
 Alpha virt. eigenvalues --    2.79619   2.79834   2.81118   2.81944   2.82980
 Alpha virt. eigenvalues --    2.84174   2.85903   2.86834   2.92007   2.96207
 Alpha virt. eigenvalues --    2.97822   3.01954   3.03757   3.05353   3.05664
 Alpha virt. eigenvalues --    3.12487   3.14470   3.17022   3.19543   3.22259
 Alpha virt. eigenvalues --    3.23210   3.24580   3.26094   3.28418   3.31912
 Alpha virt. eigenvalues --    3.33662   3.36593   3.41543   3.52466   3.55642
 Alpha virt. eigenvalues --    3.63960   3.70329   3.76452   3.77284   3.85153
 Alpha virt. eigenvalues --    3.86609   4.02763   4.05564   4.16017   4.23702
 Alpha virt. eigenvalues --    4.26831   4.28616   4.31057   4.33187   4.41585
 Alpha virt. eigenvalues --    4.42156   4.45123   4.45758   4.47420   4.49774
 Alpha virt. eigenvalues --    4.52863   4.55489   4.57747   4.62332   4.67177
 Alpha virt. eigenvalues --    4.71880   4.76719   4.79382   4.86243   5.20848
 Alpha virt. eigenvalues --    5.22309   5.26426   5.58755   5.59456   5.68561
 Alpha virt. eigenvalues --    5.69571   6.44855   6.46462   6.50554  23.87101
 Alpha virt. eigenvalues --   24.12341  24.30559  38.25852  38.82263
          Condensed to atoms (all electrons):
               1          2          3          4          5          6
     1  C    5.669602  -0.048979  -0.010965  -0.008661  -0.026510   0.001781
     2  C   -0.048979   6.215801  -0.520113  -0.083630   0.231858   0.021862
     3  C   -0.010965  -0.520113   7.228090   0.425047  -0.734528  -0.081371
     4  N   -0.008661  -0.083630   0.425047   7.724568   0.419600  -0.160236
     5  C   -0.026510   0.231858  -0.734528   0.419600   7.020697   0.656531
     6  O    0.001781   0.021862  -0.081371  -0.160236   0.656531   8.220133
     7  N   -0.001123   0.031105  -0.212361  -0.418289   0.097865  -0.037327
     8  C   -0.009122   0.029727  -0.422977  -0.266796  -1.011920  -0.596659
     9  C    0.002284  -0.011439   0.057201   0.180911   1.483208   0.535084
    10  C   -0.004806   0.004537  -0.202213  -0.228309  -1.859948  -0.172749
    11  C   -0.000005  -0.000342   0.021182   0.005041   0.403163  -0.018380
    12  C   -0.000207  -0.000338  -0.024796  -0.007748  -0.365801   0.018368
    13  C   -0.000468  -0.001434  -0.075650  -0.010900  -0.964083   0.158783
    14  H    0.442326  -0.110244   0.024474   0.000786  -0.002308   0.000005
    15  H    0.414936  -0.064100  -0.007713   0.000314   0.004042  -0.000026
    16  H    0.421373  -0.062788  -0.011466   0.000548   0.000233  -0.000033
    17  H   -0.018218   0.411444  -0.086837   0.005480   0.000190  -0.000175
    18  H   -0.014452   0.409181  -0.087455   0.004468   0.002270  -0.000199
    19  H   -0.000499  -0.052335   0.472471  -0.039570  -0.054536  -0.003264
    20  H   -0.004895  -0.056921   0.438192  -0.046232  -0.019430  -0.002513
    21  H   -0.000658   0.003734  -0.056566   0.209778   0.013330   0.002677
    22  H   -0.000011  -0.001467   0.002671   0.032609  -0.028505   0.003449
    23  H    0.000009   0.000043   0.001719   0.000322   0.009378  -0.004331
    24  H   -0.000001   0.000005   0.000332   0.001649   0.016158   0.000065
    25  H    0.000000   0.000000   0.000022   0.000004   0.002567  -0.000001
    26  S   -0.000006  -0.000021  -0.001459  -0.000246  -0.057422   0.000138
    27  C    0.000000  -0.000000   0.000123   0.000018   0.007297   0.000040
    28  F   -0.000000  -0.000000  -0.000002   0.000000  -0.000483   0.000000
    29  F   -0.000000  -0.000000  -0.000000  -0.000000  -0.000020   0.000000
    30  F   -0.000000   0.000000  -0.000005  -0.000001  -0.001060  -0.000000
    31  H   -0.000000   0.000001   0.000030   0.000012   0.002825   0.000174
    32  O   -0.000375   0.002789  -0.007626   0.020659   0.012120   0.000197
    33  O    0.000276   0.000520   0.004893   0.008549  -0.001485   0.000247
    34  C   -0.002691  -0.009126   0.011272  -0.015223  -0.022964   0.000403
    35  C   -0.000177  -0.002973   0.004843  -0.009736  -0.005685  -0.000099
    36  C   -0.000121  -0.000726  -0.000061   0.000368  -0.000142   0.000000
    37  H   -0.000001   0.000000   0.000000  -0.000003  -0.000018  -0.000000
    38  H   -0.000001   0.000000   0.000006  -0.000004  -0.000016  -0.000000
    39  H    0.000000   0.000001   0.000003   0.000002   0.000008  -0.000000
    40  H    0.000000   0.000001   0.000001   0.000001   0.000001  -0.000000
    41  H    0.000000   0.000001   0.000002   0.000002   0.000005  -0.000000
               7          8          9         10         11         12
     1  C   -0.001123  -0.009122   0.002284  -0.004806  -0.000005  -0.000207
     2  C    0.031105   0.029727  -0.011439   0.004537  -0.000342  -0.000338
     3  C   -0.212361  -0.422977   0.057201  -0.202213   0.021182  -0.024796
     4  N   -0.418289  -0.266796   0.180911  -0.228309   0.005041  -0.007748
     5  C    0.097865  -1.011920   1.483208  -1.859948   0.403163  -0.365801
     6  O   -0.037327  -0.596659   0.535084  -0.172749  -0.018380   0.018368
     7  N    7.827584   0.394532  -0.265809   0.026217   0.031960  -0.060374
     8  C    0.394532  12.835882  -0.751603   0.165677  -0.361468  -1.526621
[...]
    26  S   -0.000001   0.000001  -0.000001   0.000706  -0.000165  -0.000004
    27  C    0.000000  -0.000000  -0.000000  -0.000050  -0.000289  -0.000141
    28  F    0.000000  -0.000000  -0.000000   0.000000  -0.000001  -0.000009
    29  F    0.000000  -0.000000   0.000000  -0.000000  -0.000000  -0.000001
    30  F    0.000000  -0.000000   0.000000   0.000000  -0.000001  -0.000002
    31  H    0.000000  -0.000000  -0.000000   0.000003  -0.003634   0.000015
              25         26         27         28         29         30
     1  C    0.000000  -0.000005   0.000000  -0.000000   0.000000  -0.000000
     2  C    0.000000   0.000006  -0.000002  -0.000000  -0.000000   0.000000
     3  C    0.000023  -0.001475   0.000110  -0.000002  -0.000000  -0.000005
     4  N   -0.000002  -0.000011  -0.000025   0.000001   0.000000  -0.000000
     5  C    0.002731  -0.055614   0.006456  -0.000483  -0.000017  -0.000966
     6  O   -0.000001   0.000366   0.000021   0.000000   0.000000  -0.000000
     7  N   -0.000021  -0.005236   0.000718   0.000026   0.000002  -0.000031
     8  C    0.029044  -0.161202   0.052352  -0.015824  -0.002927  -0.009823
     9  C   -0.025814  -0.888957   0.135257   0.027450   0.003698  -0.050565
    10  C   -0.068608  -0.005048   0.002667   0.009524   0.004257   0.023344
    11  C    0.306674   0.014890   0.067776   0.023611  -0.010554  -0.070371
    12  C    0.032458  -0.473316  -0.109879   0.042979   0.019946   0.038227
    13  C    0.036966   0.794270  -0.036526  -0.075159  -0.002765   0.080077
    14  H   -0.000000  -0.000000   0.000000   0.000000   0.000000   0.000000
    15  H    0.000000  -0.000000   0.000000   0.000000   0.000000   0.000000
    16  H    0.000000  -0.000000   0.000000  -0.000000   0.000000   0.000000
    17  H   -0.000000  -0.000000   0.000000   0.000000   0.000000  -0.000000
    18  H   -0.000000  -0.000000   0.000000   0.000000   0.000000   0.000000
    19  H    0.000000  -0.000001   0.000000   0.000000   0.000000   0.000000
    20  H   -0.000000   0.000001  -0.000000  -0.000000  -0.000000  -0.000000
    21  H   -0.000000  -0.000001  -0.000000  -0.000000   0.000000   0.000000
    22  H   -0.000017   0.000706  -0.000050   0.000000  -0.000000   0.000000
    23  H    0.000012  -0.000165  -0.000289  -0.000001  -0.000000  -0.000001
    24  H   -0.004148  -0.000004  -0.000141  -0.000009  -0.000001  -0.000002
    25  H    0.470282  -0.007876  -0.000275  -0.000440  -0.000069   0.000008
    26  S   -0.007876  16.396880   0.190518  -0.087898  -0.094115  -0.082810
    27  C   -0.000275   0.190518   4.674671   0.147814   0.168100   0.148021
    28  F   -0.000440  -0.087898   0.147814   9.300906  -0.036530  -0.063349
    29  F   -0.000069  -0.094115   0.168100  -0.036530   9.279037  -0.036301
    30  F    0.000008  -0.082810   0.148021  -0.063349  -0.036301   9.295849
    31  H   -0.000138  -0.011065   0.000256   0.000008  -0.000065  -0.000558
              31
     1  C   -0.000000
     2  C    0.000001
     3  C    0.000026
     4  N    0.000017
     5  C    0.002341
     6  O    0.000171
     7  N   -0.000709
     8  C   -0.005138
     9  C    0.011293
    10  C   -0.045436
    11  C    0.050793
    12  C    0.056385
    13  C    0.246484
    14  H   -0.000000
    15  H    0.000000
    16  H    0.000000
    17  H    0.000000
    18  H    0.000000
    19  H    0.000000
    20  H   -0.000000
    21  H   -0.000000
    22  H    0.000003
    23  H   -0.003634
    24  H    0.000015
    25  H   -0.000138
    26  S   -0.011065
    27  C    0.000256
    28  F    0.000008
    29  F   -0.000065
    30  F   -0.000558
    31  H    0.466497
 Mulliken charges:
               1
     1  C   -0.721917
     2  C   -0.363565
     3  C   -0.101677
     4  N   -0.674806
     5  C    0.842469
     6  O   -0.582587
     7  N   -0.602005
     8  C   -0.102908
     9  C    0.885996
    10  C   -1.037394
    11  C   -0.185640
    12  C   -0.189764
    13  C   -0.645785
    14  H    0.215547
    15  H    0.216472
    16  H    0.216749
    17  H    0.216903
    18  H    0.220528
    19  H    0.234868
    20  H    0.230796
    21  H    0.402692
    22  H    0.400250
    23  H    0.277840
    24  H    0.190719
    25  H    0.229212
    26  S    0.477163
    27  C    0.552452
    28  F   -0.272622
    29  F   -0.291697
    30  F   -0.270744
    31  H    0.232457
    32  O    0.000000
    33  O    0.000000
    34  C    0.000000
    35  C    0.000000
    36  C    0.000000
    37  H    0.000000
    38  H    0.000000
    39  H    0.000000
    40  H    0.000000
    41  H    0.000000
 Sum of Mulliken charges =  -0.00000
 Mulliken charges with hydrogens summed into heavy atoms:
               1
     1  C   -0.073150
     2  C    0.073866
     3  C    0.363987
     4  N   -0.272113
     5  C    0.842469
     6  O   -0.582587
     7  N   -0.201755
     8  C   -0.102908
     9  C    1.163836
    10  C   -0.846674
    11  C    0.043572
    12  C   -0.189764
    13  C   -0.413329
    26  S    0.477163
    27  C    0.552452
    28  F   -0.272622
    29  F   -0.291697
    30  F   -0.270744
    32  O    0.000000
    33  O    0.000000
    34  C    0.000000
    35  C    0.000000
    36  C    0.000000
         Mulliken charges condensed to fragments:
      1     -0.000000
      2      0.000000
 Electronic spatial extent (au):  <R**2>=          10563.9700
 Charge=             -0.0000 electrons
 Dipole moment (field-independent basis, Debye):
    X=              6.9830    Y=              2.9086    Z=             -0.4350  Tot=              7.5771
 Quadrupole moment (field-independent basis, Debye-Ang):
   XX=           -112.3479   YY=           -116.1865   ZZ=           -116.8301
   XY=              1.3019   XZ=              5.3759   YZ=             -0.8817
 Traceless Quadrupole moment (field-independent basis, Debye-Ang):
   XX=              2.7736   YY=             -1.0650   ZZ=             -1.7086
   XY=              1.3019   XZ=              5.3759   YZ=             -0.8817
 Octapole moment (field-independent basis, Debye-Ang**2):
  XXX=            452.6289  YYY=            302.9257  ZZZ=             32.7388  XYY=             70.9410
  XXY=             66.5156  XXZ=             -3.9222  XZZ=             84.2024  YZZ=             92.3845
  YYZ=              9.4646  XYZ=             -4.6465
 Hexadecapole moment (field-independent basis, Debye-Ang**3):
 XXXX=         -11514.6088 YYYY=          -1607.9473 ZZZZ=           -462.2379 XXXY=            745.5445
 XXXZ=             27.3228 YYYX=            926.3917 YYYZ=              5.0007 ZZZX=           -103.4292
 ZZZY=              9.9496 XXYY=          -2073.7757 XXZZ=          -1988.1185 YYZZ=           -336.3509
 XXYZ=             -2.3959 YYXZ=            -13.6920 ZZXY=            293.2347
 N-N= 1.404087437369D+03 E-N=-5.886959659958D+03  KE= 1.300470913542D+03
 CPIOFr:  IOpCl= 0 IRwI=-1 IRwCP=  731 ICalc=  3 LCPTot=      355249 Len1MO=      919082 IndFrg=     4031577
 Counterpoise: doing MCBS calculation for fragment   2
 Basis read from rwf:  (6D, 7F)
 There are   105 symmetry adapted cartesian basis functions of A   symmetry.
 There are   105 symmetry adapted basis functions of A   symmetry.
   105 basis functions,   180 primitive gaussians,   105 cartesian basis functions
    20 alpha electrons       20 beta electrons
       nuclear repulsion energy       168.5409251750 Hartrees.
 NAtoms=   41 NActive=   10 NUniq=   10 SFac= 1.00D+00 NAtFMM=   60 NAOKFM=F Big=F
 Integral buffers will be    131072 words long.
 Raffenetti 2 integral format.
 Two-electron integral symmetry is turned on.
 One-electron integrals computed using PRISM.
 NBasis=   105 RedAO= T EigKep=  1.23D-04  NBF=   105
 NBsUse=   105 1.00D-06 EigRej= -1.00D+00 NBFU=   105
 ExpMin= 4.38D-02 ExpMax= 5.48D+03 ExpMxC= 8.25D+02 IAcc=3 IRadAn=         5 AccDes= 0.00D+00
 Harris functional with IExCor= 1009 and IRadAn=       5 diagonalized for initial guess.
 HarFok:  IExCor= 1009 AccDes= 0.00D+00 IRadAn=         5 IDoV= 1 UseB2=F ITyADJ=14
 ICtDFT=  3500011 ScaDFX=  1.000000  1.000000  1.000000  1.000000
 FoFCou: FMM=F IPFlag=           0 FMFlag=      100000 FMFlg1=           0
         NFxFlg=           0 DoJE=T BraDBF=F KetDBF=T FulRan=T
         wScrn=  0.000000 ICntrl=     500 IOpCl=  0 I1Cent=   200000004 NGrid=           0
         NMat0=    1 NMatS0=      1 NMatT0=    0 NMatD0=    1 NMtDS0=    0 NMtDT0=    0
 Petite list used in FoFCou.
 Keep R1 ints in memory in canonical form, NReq=16474372.
 Requested convergence on RMS density matrix=1.00D-08 within 128 cycles.
 Requested convergence on MAX density matrix=1.00D-06.
 Requested convergence on             energy=1.00D-06.
 No special actions if energy rises.
 SCF Done:  E(RM062X) =  -267.728527973     A.U. after   14 cycles
            NFock= 14  Conv=0.40D-08     -V/T= 2.0084

 **********************************************************************

            Population analysis using the SCF density.

 **********************************************************************

 Orbital symmetries:
       Occupied  (A) (A) (A) (A) (A) (A) (A) (A) (A) (A) (A) (A)
                 (A) (A) (A) (A) (A) (A) (A) (A)
       Virtual   (A) (A) (A) (A) (A) (A) (A) (A) (A) (A) (A) (A)
                 (A) (A) (A) (A) (A) (A) (A) (A) (A) (A) (A) (A)
                 (A) (A) (A) (A) (A) (A) (A) (A) (A) (A) (A) (A)
                 (A) (A) (A) (A) (A) (A) (A) (A) (A) (A) (A) (A)
                 (A) (A) (A) (A) (A) (A) (A) (A) (A) (A) (A) (A)
                 (A) (A) (A) (A) (A) (A) (A) (A) (A) (A) (A) (A)
                 (A) (A) (A) (A) (A) (A) (A) (A) (A) (A) (A) (A)
                 (A)
 The electronic state is 1-A.
 Alpha  occ. eigenvalues --  -19.38331 -19.37984 -10.43624 -10.38682 -10.37519
 Alpha  occ. eigenvalues --   -0.94240  -0.84545  -0.69902  -0.55996  -0.39478
 Alpha  occ. eigenvalues --   -0.36266  -0.33521  -0.30135  -0.27612  -0.27397
 Alpha  occ. eigenvalues --   -0.25021  -0.22646  -0.10900  -0.10839  -0.10189
 Alpha virt. eigenvalues --    0.14620   0.16488   0.18638   0.19567   0.21557
 Alpha virt. eigenvalues --    0.21832   0.22419   0.22882   0.23463   0.25913
 Alpha virt. eigenvalues --    0.28393   0.29741   0.30030   0.38008   0.38908
 Alpha virt. eigenvalues --    0.42266   0.42500   0.43637   0.45463   0.46254
 Alpha virt. eigenvalues --    0.46732   0.48000   0.49561   0.49782   0.50775
 Alpha virt. eigenvalues --    0.55086   0.56088   0.57221   0.71667   0.75236
 Alpha virt. eigenvalues --    0.84460   0.86647   0.89646   0.92066   0.94827
 Alpha virt. eigenvalues --    0.99491   1.01979   1.08493   1.10002   1.14586
 Alpha virt. eigenvalues --    1.20089   1.21329   1.31101   1.32736   1.33992
 Alpha virt. eigenvalues --    1.34588   1.49183   1.54751   1.57832   1.59145
 Alpha virt. eigenvalues --    1.61033   1.63172   1.63278   1.74391   1.78260
 Alpha virt. eigenvalues --    1.80800   1.86842   2.02504   2.02790   2.08638
 Alpha virt. eigenvalues --    2.10084   2.12065   2.14419   2.16424   2.22702
 Alpha virt. eigenvalues --    2.26510   2.28105   2.29490   2.45081   2.52377
 Alpha virt. eigenvalues --    2.54077   2.54340   2.73430   2.74142   2.78570
 Alpha virt. eigenvalues --    2.97763   3.13280   3.27248   3.32664   3.42472
 Alpha virt. eigenvalues --    4.36344   4.41511   4.58217   4.66992   4.82485
          Condensed to atoms (all electrons):
               1          2          3          4          5          6
     1  O    8.617991  -0.169266   0.529556  -0.393067   0.079582  -0.002900
     2  O   -0.169266   8.596684   0.462365  -0.323908   0.096300   0.001447
     3  C    0.529556   0.462365   4.834397  -0.360491   0.050744  -0.015146
     4  C   -0.393067  -0.323908  -0.360491   7.537416  -0.643460   0.388859
     5  C    0.079582   0.096300   0.050744  -0.643460   6.027191  -0.056207
     6  H   -0.002900   0.001447  -0.015146   0.388859  -0.056207   0.530311
     7  H   -0.002788   0.001194  -0.015246   0.388271  -0.055531  -0.032668
     8  H   -0.000084  -0.006580  -0.003286  -0.047818   0.410986  -0.004334
     9  H   -0.000313   0.002871   0.012335  -0.059858   0.378236  -0.002034
    10  H   -0.000122  -0.006664  -0.002275  -0.048849   0.411301   0.003866
               7          8          9         10
     1  O   -0.002788  -0.000084  -0.000313  -0.000122
     2  O    0.001194  -0.006580   0.002871  -0.006664
     3  C   -0.015246  -0.003286   0.012335  -0.002275
     4  C    0.388271  -0.047818  -0.059858  -0.048849
     5  C   -0.055531   0.410986   0.378236   0.411301
     6  H   -0.032668  -0.004334  -0.002034   0.003866
     7  H    0.530719   0.003866  -0.002030  -0.004354
     8  H    0.003866   0.499773  -0.033944  -0.025631
     9  H   -0.002030  -0.033944   0.589033  -0.033849
    10  H   -0.004354  -0.025631  -0.033849   0.498330
 Mulliken charges:
               1
     1  C    0.000000
     2  C    0.000000
     3  C    0.000000
     4  N    0.000000
     5  C    0.000000
     6  O    0.000000
     7  N    0.000000
     8  C    0.000000
     9  C    0.000000
    10  C    0.000000
    11  C    0.000000
    12  C    0.000000
    13  C    0.000000
    14  H    0.000000
    15  H    0.000000
    16  H    0.000000
    17  H    0.000000
    18  H    0.000000
    19  H    0.000000
    20  H    0.000000
    21  H    0.000000
    22  H    0.000000
    23  H    0.000000
    24  H    0.000000
    25  H    0.000000
    26  S    0.000000
    27  C    0.000000
    28  F    0.000000
    29  F    0.000000
    30  F    0.000000
    31  H    0.000000
    32  O   -0.658590
    33  O   -0.654444
    34  C    0.507048
    35  C   -0.437096
    36  C   -0.699142
    37  H    0.188805
    38  H    0.188567
    39  H    0.207052
    40  H    0.149553
    41  H    0.208248
 Sum of Mulliken charges =  -1.00000
 Mulliken charges with hydrogens summed into heavy atoms:
               1
     1  C    0.000000
     2  C    0.000000
     3  C    0.000000
     4  N    0.000000
     5  C    0.000000
     6  O    0.000000
     7  N    0.000000
     8  C    0.000000
     9  C    0.000000
    10  C    0.000000
    11  C    0.000000
    12  C    0.000000
    13  C    0.000000
    26  S    0.000000
    27  C    0.000000
    28  F    0.000000
    29  F    0.000000
    30  F    0.000000
    32  O   -0.658590
    33  O   -0.654444
    34  C    0.507048
    35  C   -0.059725
    36  C   -0.134289
         Mulliken charges condensed to fragments:
      1      0.000000
      2     -1.000000
 Electronic spatial extent (au):  <R**2>=           3185.2120
 Charge=             -1.0000 electrons
 Dipole moment (field-independent basis, Debye):
    X=            -14.9647    Y=             -8.3938    Z=             -0.1558  Tot=             17.1588
 Quadrupole moment (field-independent basis, Debye-Ang):
   XX=            -88.8032   YY=            -54.2171   ZZ=            -32.4824
   XY=            -23.3264   XZ=             -1.5699   YZ=              0.0358
 Traceless Quadrupole moment (field-independent basis, Debye-Ang):
   XX=            -30.3023   YY=              4.2838   ZZ=             26.0185
   XY=            -23.3264   XZ=             -1.5699   YZ=              0.0358
 Octapole moment (field-independent basis, Debye-Ang**2):
  XXX=           -556.2000  YYY=           -381.5038  ZZZ=             -5.0335  XYY=           -163.1079
  XXY=           -180.7990  XXZ=            -10.6171  XZZ=           -105.8854  YZZ=            -97.7351
  YYZ=             -1.2478  XYZ=             -1.9706
 Hexadecapole moment (field-independent basis, Debye-Ang**3):
 XXXX=          -3312.8933 YYYY=          -2610.8103 ZZZZ=            -52.1594 XXXY=          -1287.0659
 XXXZ=            -68.2063 YYYX=          -1173.6216 YYYZ=            -11.7807 ZZZX=            -23.3737
 ZZZY=            -12.7464 XXYY=           -924.7045 XXZZ=           -382.9874 YYZZ=           -369.8644
 XXYZ=            -17.9330 YYXZ=            -11.2219 ZZXY=           -311.0970
 N-N= 1.685409251750D+02 E-N=-9.724238313473D+02  KE= 2.654885932449D+02
 CPIOFr:  IOpCl= 0 IRwI=-1 IRwCP=  731 ICalc=  4 LCPTot=      355249 Len1MO=      919082 IndFrg=     4950659
 CPIOFr:  IOpCl= 0 IRwI=-2 IRwCP=  731 ICalc=  0 LCPTot=      355249 Len1MO=      919082 IndFrg=     1274331
 Counterpoise corrected energy =   -1576.915524086212
                   BSSE energy =       0.001715943044
               sum of monomers =   -1576.837961900910
           complexation energy =     -49.75 kcal/mole (raw)
           complexation energy =     -48.67 kcal/mole (corrected)
 1\1\GINC-R3956\SP\RM062X\Gen\C14H18F3N2O3S1(1-)\ROOT\21-Feb-2019\0\\# 
 M062X/Gen 6D SCF=Tight INT(grid=ultrafine) Counterpoise=2 maxdisk=6710
 88640\\4SulfCF3_EtO.M062X_6-31pGd_bsse\\-1,1\C,0,-1.7494955493,2.24901
 47283,0.3005153084\C,0,-0.373476878,1.5888014855,0.257023243\C,0,0.733
 6795569,2.6120464098,0.0294686206\N,0,2.0158663745,1.9473470428,-0.006
 8976273\C,0,3.1504541412,2.6686703127,-0.1583363188\O,0,3.1604206746,3
 .8981642416,-0.2624496133\N,0,4.2923001816,1.8755974436,-0.181729772\C
 ,0,5.5968300389,2.2891653994,-0.3274249596\C,0,6.004684885,3.631162568
 ,-0.4772813955\C,0,6.5830351052,1.2750693419,-0.3276216011\C,0,7.92171
 81324,1.5902779843,-0.4750608637\C,0,8.323268581,2.9250843474,-0.61985
 69295\C,0,7.3532693014,3.9309003408,-0.6244057426\H,0,-2.5413666439,1.
 5110559529,0.4659216556\H,0,-1.967103463,2.7690349026,-0.6400916582\H,
 0,-1.8064281951,2.9888936691,1.1079078802\H,0,-0.3343068237,0.83355646
 62,-0.5366778428\H,0,-0.1765395752,1.0501798098,1.1914704734\H,0,0.725
 8917376,3.3671157418,0.8286505055\H,0,0.5602848277,3.1564930243,-0.910
 9610422\H,0,2.0381479178,0.9125496338,0.0605494835\H,0,4.1598614529,0.
 8465027103,-0.090078535\H,0,5.2576113036,4.4128925614,-0.4787398531\H,
 0,6.2616123404,0.2423403281,-0.2131592447\H,0,8.6685588766,0.800932717
 ,-0.4745150348\S,0,10.0355196115,3.3271688996,-0.8680162187\C,0,10.550
 7755244,3.5523654649,0.8485129434\F,0,10.4026137393,2.4524113511,1.601
 3170711\F,0,11.8597112811,3.8721858684,0.8635189812\F,0,9.8949484859,4
 .5368810826,1.480486987\H,0,7.6606258744,4.9669397825,-0.7410341519\O,
 0,1.9139052658,-0.85613337,0.1850457143\O,0,4.1544514284,-0.8926162431
 ,0.0321254119\C,0,3.0257916383,-1.4420587247,0.1471546606\C,0,2.988086
 2918,-2.9757403416,0.2543165328\C,0,4.3540287081,-3.647100555,0.183384
 8809\H,0,2.327733875,-3.3375125087,-0.5435275886\H,0,2.4779799161,-3.2
 18473582,1.1949069527\H,0,4.8530944012,-3.4077612624,-0.7601803317\H,0
 ,4.2659465148,-4.7375143654,0.2660330263\H,0,5.0029791427,-3.286770659
 5,0.9867559927\\Version=ES64L-G09RevE.01\State=1-A\HF=-267.728528\RMSD
 =3.957e-09\Dipole=1.32888,0.5125713,-0.0476109\Quadrupole=-20.3704291,
 -0.2160874,20.5865165,-13.4617277,-2.6600203,0.2034937\PG=C01 [X(C14H1
 8F3N2O3S1)]\\@


 SACRED COWS MAKE GREAT HAMBURGERS -- ROBERT REISNER
 Job cpu time:       0 days  2 hours  9 minutes 42.8 seconds.
 File lengths (MBytes):  RWF=    187 Int=      0 D2E=      0 Chk=     51 Scr=      1
 Normal termination of Gaussian 09 at Thu Feb 21 16:04:07 2019.
WARNING: pbs_rusage is deprecated and values produced may not be accurate


=============================================================================
                                     Resource usage:
                                       CPU time:              02:02:24
   JobId:    5976543.r-man2            Elapsed time:          00:32:22
   Project:             q95            Requested time:        48:00:00
   Service Units:      2.16 
                                       Max physical memory:      152MB
                                       Max virtual memory:       411MB
                                       Requested memory:           0MB

                                       Number of cpus:               4

                                       Max jobfs disk use:       0.2GB
                                       Requested jobfs:          5.0GB
=============================================================================

