 Entering Gaussian System, Link 0=/apps/gaussian/g09e01/g09/g09
 AtFile(1): /home/507/hio507/Basis/6-31pGd.gbs
 Initial command:
 /apps/gaussian/g09e01/g09/l1.exe "/jobfs/local/5875483.r-man2/Gau-51739.inp" -scrdir="/jobfs/local/5875483.r-man2/"
 Entering Link 1 = /apps/gaussian/g09e01/g09/l1.exe PID=     51740.
  
 Copyright (c) 1988,1990,1992,1993,1995,1998,2003,2009,2015,
            Gaussian, Inc.  All Rights Reserved.
  
 This is part of the Gaussian(R) 09 program.  It is based on
 the Gaussian(R) 03 system (copyright 2003, Gaussian, Inc.),
 the Gaussian(R) 98 system (copyright 1998, Gaussian, Inc.),
 the Gaussian(R) 94 system (copyright 1995, Gaussian, Inc.),
 the Gaussian 92(TM) system (copyright 1992, Gaussian, Inc.),
 the Gaussian 90(TM) system (copyright 1990, Gaussian, Inc.),
 the Gaussian 88(TM) system (copyright 1988, Gaussian, Inc.),
 the Gaussian 86(TM) system (copyright 1986, Carnegie Mellon
 University), and the Gaussian 82(TM) system (copyright 1983,
 Carnegie Mellon University). Gaussian is a federally registered
 trademark of Gaussian, Inc.
  
 This software contains proprietary and confidential information,
 including trade secrets, belonging to Gaussian, Inc.
  
 This software is provided under written license and may be
 used, copied, transmitted, or stored only in accord with that
 written license.
  
 The following legend is applicable only to US Government
 contracts under FAR:
  
                    RESTRICTED RIGHTS LEGEND
  
 Use, reproduction and disclosure by the US Government is
 subject to restrictions as set forth in subparagraphs (a)
 and (c) of the Commercial Computer Software - Restricted
 Rights clause in FAR 52.227-19.
  
 Gaussian, Inc.
 340 Quinnipiac St., Bldg. 40, Wallingford CT 06492
  
  
 ---------------------------------------------------------------
 Warning -- This program may not be used in any manner that
 competes with the business of Gaussian, Inc. or will provide
 assistance to any competitor of Gaussian, Inc.  The licensee
 of this program is prohibited from giving any competitor of
 Gaussian, Inc. access to this program.  By using this program,
 the user acknowledges that Gaussian, Inc. is engaged in the
 business of creating and licensing software in the field of
 computational chemistry and represents and warrants to the
 licensee that it is not a competitor of Gaussian, Inc. and that
 it will not use this program in any manner prohibited above.
 ---------------------------------------------------------------
  

 Cite this work as:
 Gaussian 09, Revision E.01,
 M. J. Frisch, G. W. Trucks, H. B. Schlegel, G. E. Scuseria, 
 M. A. Robb, J. R. Cheeseman, G. Scalmani, V. Barone, B. Mennucci, 
 G. A. Petersson, H. Nakatsuji, M. Caricato, X. Li, H. P. Hratchian, 
 A. F. Izmaylov, J. Bloino, G. Zheng, J. L. Sonnenberg, M. Hada, 
 M. Ehara, K. Toyota, R. Fukuda, J. Hasegawa, M. Ishida, T. Nakajima, 
 Y. Honda, O. Kitao, H. Nakai, T. Vreven, J. A. Montgomery, Jr., 
 J. E. Peralta, F. Ogliaro, M. Bearpark, J. J. Heyd, E. Brothers, 
 K. N. Kudin, V. N. Staroverov, T. Keith, R. Kobayashi, J. Normand, 
 K. Raghavachari, A. Rendell, J. C. Burant, S. S. Iyengar, J. Tomasi, 
 M. Cossi, N. Rega, J. M. Millam, M. Klene, J. E. Knox, J. B. Cross, 
 V. Bakken, C. Adamo, J. Jaramillo, R. Gomperts, R. E. Stratmann, 
 O. Yazyev, A. J. Austin, R. Cammi, C. Pomelli, J. W. Ochterski, 
 R. L. Martin, K. Morokuma, V. G. Zakrzewski, G. A. Voth, 
 P. Salvador, J. J. Dannenberg, S. Dapprich, A. D. Daniels, 
 O. Farkas, J. B. Foresman, J. V. Ortiz, J. Cioslowski, 
 and D. J. Fox, Gaussian, Inc., Wallingford CT, 2013.
 
 ******************************************
 Gaussian 09:  ES64L-G09RevE.01 30-Nov-2015
                19-Feb-2019 
 ******************************************
 %chk=4SulfCF3_EtO.M062X_6-31pGd_opt_water.chk
 %mem=196608000
 %nproc=8
 Will use up to    8 processors via shared memory.
 ----------------------------------------------------------------------
 # M062X/Gen 6D SCF=Tight INT(grid=ultrafine) OPT IOP(2/17=4) SCRF=(SMD
 ,Solvent=h2o) maxdisk=2684354560
 ----------------------------------------------------------------------
 1/14=-1,18=20,19=15,26=4,38=1/1,3;
 2/9=110,12=2,17=4,18=5,40=1/2;
 3/5=7,8=2,11=2,16=1,25=1,30=1,70=32201,71=1,72=1,74=-55,75=-5/1,2,3;
 4//1;
 5/5=2,32=2,38=5,53=1/2;
 6/7=2,8=2,9=2,10=2,28=1/1;
 7//1,2,3,16;
 1/14=-1,18=20,19=15,26=4/3(2);
 2/9=110,17=4/2;
 99//99;
 2/9=110,17=4/2;
 3/5=7,6=1,8=2,11=2,16=1,25=1,30=1,70=32205,71=1,72=1,74=-55,75=-5,82=7/1,2,3;
 4/5=5,16=3,69=1/1;
 5/5=2,32=2,38=5,53=1/2;
 7//1,2,3,16;
 1/14=-1,18=20,19=15,26=4/3(-5);
 2/9=110,17=4/2;
 6/7=2,8=2,9=2,10=2,19=2,28=1/1;
 99/9=1/99;
 ------------------------------------
 4SulfCF3_EtO.M062X_6-31pGd_opt_water
 ------------------------------------
 Symbolic Z-matrix:
 Charge = -1 Multiplicity = 1
 C                    -1.8063    2.56959   0.24396 
 C                    -0.49713   1.79117   0.1531 
 C                     0.70495   2.73634   0.05259 
 N                     1.95026   1.99242  -0.04408 
 C                     3.15349   2.62657  -0.15575 
 O                     3.18055   3.84656  -0.17267 
 N                     4.30487   1.88817  -0.2613 
 C                     5.65353   2.38305  -0.39939 
 C                     6.01405   3.7537   -0.34289 
 C                     6.68631   1.44433  -0.60541 
 C                     8.01535   1.84722  -0.75543 
 C                     8.34922   3.20016  -0.69738 
 C                     7.34752   4.14945  -0.49122 
 H                    -2.6572    1.85961   0.31379 
 H                    -1.94358   3.20081  -0.65988 
 H                    -1.80852   3.21789   1.14597 
 H                    -0.53018   1.13725  -0.74556 
 H                    -0.39369   1.15324   1.05771 
 H                     0.73549   3.38772   0.95383 
 H                     0.59013   3.37403  -0.85174 
 H                     1.91399   0.85202  -0.03245 
 H                     4.1794    0.74904  -0.25393 
 H                     5.30993   4.5485   -0.18292 
 H                     6.47042   0.38655  -0.65902 
 H                     8.78529   1.10352  -0.91775 
 S                     10.05626   3.72093  -0.89921 
 C                     10.49365   3.53875   0.86121 
 F                     10.41192   2.21141   1.23872 
 F                     11.79346   3.97141   1.03881 
 F                     9.66088   4.31276   1.64817 
 H                     7.60096   5.20136  -0.44538 
 O                     1.92218  -1.20384   0.23343 
 O                     4.13793  -1.30898   0.02683 
 C                     3.07946  -1.89694   0.21316 
 C                     3.04225  -3.38715   0.42331 
 C                     4.42588  -4.03531   0.37984 
 H                     2.40784  -3.84183  -0.36717 
 H                     2.58099  -3.59477   1.41239 
 H                     4.90225  -3.86302  -0.60894 
 H                     4.32886  -5.12963   0.54131 
 H                     5.07405  -3.61494   1.17836 
 
 Add virtual bond connecting atoms O32        and H21        Dist= 3.92D+00.
 Add virtual bond connecting atoms O33        and H22        Dist= 3.93D+00.

 GradGradGradGradGradGradGradGradGradGradGradGradGradGradGradGradGradGrad
 Berny optimization.
 Initialization pass.
                           ----------------------------
                           !    Initial Parameters    !
                           ! (Angstroms and Degrees)  !
 --------------------------                            --------------------------
 ! Name  Definition              Value          Derivative Info.                !
 --------------------------------------------------------------------------------
 ! R1    R(1,2)                  1.5258         estimate D2E/DX2                !
 ! R2    R(1,14)                 1.1104         estimate D2E/DX2                !
 ! R3    R(1,15)                 1.111          estimate D2E/DX2                !
 ! R4    R(1,16)                 1.1108         estimate D2E/DX2                !
 ! R5    R(2,3)                  1.5325         estimate D2E/DX2                !
 ! R6    R(2,17)                 1.1119         estimate D2E/DX2                !
 ! R7    R(2,18)                 1.1117         estimate D2E/DX2                !
 ! R8    R(3,4)                  1.4538         estimate D2E/DX2                !
 ! R9    R(3,19)                 1.1124         estimate D2E/DX2                !
 ! R10   R(3,20)                 1.1125         estimate D2E/DX2                !
 ! R11   R(4,5)                  1.3647         estimate D2E/DX2                !
 ! R12   R(4,21)                 1.141          estimate D2E/DX2                !
 ! R13   R(5,6)                  1.2204         estimate D2E/DX2                !
 ! R14   R(5,7)                  1.3719         estimate D2E/DX2                !
 ! R15   R(7,8)                  1.4432         estimate D2E/DX2                !
 ! R16   R(7,22)                 1.146          estimate D2E/DX2                !
 ! R17   R(8,9)                  1.4184         estimate D2E/DX2                !
 ! R18   R(8,10)                 1.4108         estimate D2E/DX2                !
 ! R19   R(9,13)                 1.3988         estimate D2E/DX2                !
 ! R20   R(9,23)                 1.0738         estimate D2E/DX2                !
 ! R21   R(10,11)                1.3968         estimate D2E/DX2                !
 ! R22   R(10,24)                1.0809         estimate D2E/DX2                !
 ! R23   R(11,12)                1.3947         estimate D2E/DX2                !
 ! R24   R(11,25)                1.0827         estimate D2E/DX2                !
 ! R25   R(12,13)                1.3954         estimate D2E/DX2                !
 ! R26   R(12,26)                1.7961         estimate D2E/DX2                !
 ! R27   R(13,31)                1.083          estimate D2E/DX2                !
 ! R28   R(21,32)                2.073          estimate D2E/DX2                !
 ! R29   R(22,33)                2.0775         estimate D2E/DX2                !
 ! R30   R(26,27)                1.8231         estimate D2E/DX2                !
 ! R31   R(27,28)                1.3824         estimate D2E/DX2                !
 ! R32   R(27,29)                1.3814         estimate D2E/DX2                !
 ! R33   R(27,30)                1.3827         estimate D2E/DX2                !
 ! R34   R(32,34)                1.3491         estimate D2E/DX2                !
 ! R35   R(33,34)                1.2251         estimate D2E/DX2                !
 ! R36   R(34,35)                1.5054         estimate D2E/DX2                !
 ! R37   R(35,36)                1.5285         estimate D2E/DX2                !
 ! R38   R(35,37)                1.1109         estimate D2E/DX2                !
 ! R39   R(35,38)                1.1109         estimate D2E/DX2                !
 ! R40   R(36,39)                1.111          estimate D2E/DX2                !
 ! R41   R(36,40)                1.1104         estimate D2E/DX2                !
 ! R42   R(36,41)                1.1111         estimate D2E/DX2                !
 ! A1    A(2,1,14)             109.5753         estimate D2E/DX2                !
 ! A2    A(2,1,15)             110.331          estimate D2E/DX2                !
 ! A3    A(2,1,16)             110.3537         estimate D2E/DX2                !
 ! A4    A(14,1,15)            108.6486         estimate D2E/DX2                !
 ! A5    A(14,1,16)            108.6972         estimate D2E/DX2                !
 ! A6    A(15,1,16)            109.1953         estimate D2E/DX2                !
 ! A7    A(1,2,3)              111.2407         estimate D2E/DX2                !
 ! A8    A(1,2,17)             108.824          estimate D2E/DX2                !
 ! A9    A(1,2,18)             108.9121         estimate D2E/DX2                !
 ! A10   A(3,2,17)             109.4532         estimate D2E/DX2                !
 ! A11   A(3,2,18)             109.5293         estimate D2E/DX2                !
 ! A12   A(17,2,18)            108.841          estimate D2E/DX2                !
 ! A13   A(2,3,4)              111.1416         estimate D2E/DX2                !
 ! A14   A(2,3,19)             109.2414         estimate D2E/DX2                !
 ! A15   A(2,3,20)             109.0195         estimate D2E/DX2                !
 ! A16   A(4,3,19)             109.268          estimate D2E/DX2                !
 ! A17   A(4,3,20)             109.1273         estimate D2E/DX2                !
 ! A18   A(19,3,20)            109.0117         estimate D2E/DX2                !
 ! A19   A(3,4,5)              121.527          estimate D2E/DX2                !
 ! A20   A(3,4,21)             118.9151         estimate D2E/DX2                !
 ! A21   A(5,4,21)             119.5568         estimate D2E/DX2                !
 ! A22   A(4,5,6)              119.0262         estimate D2E/DX2                !
 ! A23   A(4,5,7)              119.7463         estimate D2E/DX2                !
 ! A24   A(6,5,7)              121.2237         estimate D2E/DX2                !
 ! A25   A(5,7,8)              127.3791         estimate D2E/DX2                !
 ! A26   A(5,7,22)             116.2708         estimate D2E/DX2                !
 ! A27   A(8,7,22)             116.3439         estimate D2E/DX2                !
 ! A28   A(7,8,9)              124.4072         estimate D2E/DX2                !
 ! A29   A(7,8,10)             118.0287         estimate D2E/DX2                !
 ! A30   A(9,8,10)             117.5641         estimate D2E/DX2                !
 ! A31   A(8,9,13)             120.7612         estimate D2E/DX2                !
 ! A32   A(8,9,23)             123.6774         estimate D2E/DX2                !
 ! A33   A(13,9,23)            115.5608         estimate D2E/DX2                !
 ! A34   A(8,10,11)            121.3522         estimate D2E/DX2                !
 ! A35   A(8,10,24)            120.8092         estimate D2E/DX2                !
 ! A36   A(11,10,24)           117.8373         estimate D2E/DX2                !
 ! A37   A(10,11,12)           120.2036         estimate D2E/DX2                !
 ! A38   A(10,11,25)           119.6428         estimate D2E/DX2                !
 ! A39   A(12,11,25)           120.1536         estimate D2E/DX2                !
 ! A40   A(11,12,13)           119.6192         estimate D2E/DX2                !
 ! A41   A(11,12,26)           120.2711         estimate D2E/DX2                !
 ! A42   A(13,12,26)           120.108          estimate D2E/DX2                !
 ! A43   A(9,13,12)            120.499          estimate D2E/DX2                !
 ! A44   A(9,13,31)            119.5637         estimate D2E/DX2                !
 ! A45   A(12,13,31)           119.9373         estimate D2E/DX2                !
 ! A46   A(12,26,27)            95.1947         estimate D2E/DX2                !
 ! A47   A(26,27,28)           110.2102         estimate D2E/DX2                !
 ! A48   A(26,27,29)           108.5783         estimate D2E/DX2                !
 ! A49   A(26,27,30)           110.4352         estimate D2E/DX2                !
 ! A50   A(28,27,29)           108.7387         estimate D2E/DX2                !
 ! A51   A(28,27,30)           110.2703         estimate D2E/DX2                !
 ! A52   A(29,27,30)           108.5544         estimate D2E/DX2                !
 ! A53   A(21,32,34)           120.7279         estimate D2E/DX2                !
 ! A54   A(22,33,34)           120.8803         estimate D2E/DX2                !
 ! A55   A(32,34,33)           119.7936         estimate D2E/DX2                !
 ! A56   A(32,34,35)           119.0293         estimate D2E/DX2                !
 ! A57   A(33,34,35)           121.1771         estimate D2E/DX2                !
 ! A58   A(34,35,36)           113.167          estimate D2E/DX2                !
 ! A59   A(34,35,37)           108.6595         estimate D2E/DX2                !
 ! A60   A(34,35,38)           108.6358         estimate D2E/DX2                !
 ! A61   A(36,35,37)           108.8536         estimate D2E/DX2                !
 ! A62   A(36,35,38)           108.7787         estimate D2E/DX2                !
 ! A63   A(37,35,38)           108.6583         estimate D2E/DX2                !
 ! A64   A(35,36,39)           110.3456         estimate D2E/DX2                !
 ! A65   A(35,36,40)           109.5523         estimate D2E/DX2                !
 ! A66   A(35,36,41)           110.316          estimate D2E/DX2                !
 ! A67   A(39,36,40)           108.6455         estimate D2E/DX2                !
 ! A68   A(39,36,41)           109.3189         estimate D2E/DX2                !
 ! A69   A(40,36,41)           108.6222         estimate D2E/DX2                !
 ! A70   L(4,21,32,2,-1)       181.3405         estimate D2E/DX2                !
 ! A71   L(7,22,33,1,-1)       184.3596         estimate D2E/DX2                !
 ! A72   L(4,21,32,2,-2)       187.4071         estimate D2E/DX2                !
 ! A73   L(7,22,33,1,-2)       188.0684         estimate D2E/DX2                !
 ! D1    D(14,1,2,3)           179.9051         estimate D2E/DX2                !
 ! D2    D(14,1,2,17)           59.241          estimate D2E/DX2                !
 ! D3    D(14,1,2,18)          -59.2784         estimate D2E/DX2                !
 ! D4    D(15,1,2,3)            60.3221         estimate D2E/DX2                !
 ! D5    D(15,1,2,17)          -60.342          estimate D2E/DX2                !
 ! D6    D(15,1,2,18)         -178.8614         estimate D2E/DX2                !
 ! D7    D(16,1,2,3)           -60.4378         estimate D2E/DX2                !
 ! D8    D(16,1,2,17)          178.8981         estimate D2E/DX2                !
 ! D9    D(16,1,2,18)           60.3788         estimate D2E/DX2                !
 ! D10   D(1,2,3,4)           -179.567          estimate D2E/DX2                !
 ! D11   D(1,2,3,19)            59.7885         estimate D2E/DX2                !
 ! D12   D(1,2,3,20)           -59.2422         estimate D2E/DX2                !
 ! D13   D(17,2,3,4)           -59.2739         estimate D2E/DX2                !
 ! D14   D(17,2,3,19)         -179.9184         estimate D2E/DX2                !
 ! D15   D(17,2,3,20)           61.0509         estimate D2E/DX2                !
 ! D16   D(18,2,3,4)            59.9799         estimate D2E/DX2                !
 ! D17   D(18,2,3,19)          -60.6646         estimate D2E/DX2                !
 ! D18   D(18,2,3,20)         -179.6954         estimate D2E/DX2                !
 ! D19   D(2,3,4,5)            179.3905         estimate D2E/DX2                !
 ! D20   D(2,3,4,21)            -0.2165         estimate D2E/DX2                !
 ! D21   D(19,3,4,5)           -59.9806         estimate D2E/DX2                !
 ! D22   D(19,3,4,21)          120.4123         estimate D2E/DX2                !
 ! D23   D(20,3,4,5)            59.1296         estimate D2E/DX2                !
 ! D24   D(20,3,4,21)         -120.4775         estimate D2E/DX2                !
 ! D25   D(3,4,5,6)              0.1001         estimate D2E/DX2                !
 ! D26   D(3,4,5,7)           -179.1923         estimate D2E/DX2                !
 ! D27   D(21,4,5,6)           179.7047         estimate D2E/DX2                !
 ! D28   D(21,4,5,7)             0.4124         estimate D2E/DX2                !
 ! D29   D(3,4,32,34)         -176.6273         estimate D2E/DX2                !
 ! D30   D(5,4,32,34)           -1.245          estimate D2E/DX2                !
 ! D31   D(4,5,7,8)            179.3466         estimate D2E/DX2                !
 ! D32   D(4,5,7,22)             0.2952         estimate D2E/DX2                !
 ! D33   D(6,5,7,8)              0.0703         estimate D2E/DX2                !
 ! D34   D(6,5,7,22)          -178.9811         estimate D2E/DX2                !
 ! D35   D(5,7,8,9)              5.1998         estimate D2E/DX2                !
 ! D36   D(5,7,8,10)          -174.7603         estimate D2E/DX2                !
 ! D37   D(22,7,8,9)          -175.7493         estimate D2E/DX2                !
 ! D38   D(22,7,8,10)            4.2905         estimate D2E/DX2                !
 ! D39   D(5,7,33,34)            0.836          estimate D2E/DX2                !
 ! D40   D(8,7,33,34)          176.6562         estimate D2E/DX2                !
 ! D41   D(7,8,9,13)          -179.7767         estimate D2E/DX2                !
 ! D42   D(7,8,9,23)             0.5345         estimate D2E/DX2                !
 ! D43   D(10,8,9,13)            0.1837         estimate D2E/DX2                !
 ! D44   D(10,8,9,23)         -179.5051         estimate D2E/DX2                !
 ! D45   D(7,8,10,11)          179.6444         estimate D2E/DX2                !
 ! D46   D(7,8,10,24)            0.0762         estimate D2E/DX2                !
 ! D47   D(9,8,10,11)           -0.3185         estimate D2E/DX2                !
 ! D48   D(9,8,10,24)         -179.8867         estimate D2E/DX2                !
 ! D49   D(8,9,13,12)           -0.0265         estimate D2E/DX2                !
 ! D50   D(8,9,13,31)          179.9619         estimate D2E/DX2                !
 ! D51   D(23,9,13,12)         179.6864         estimate D2E/DX2                !
 ! D52   D(23,9,13,31)          -0.3252         estimate D2E/DX2                !
 ! D53   D(8,10,11,12)           0.2961         estimate D2E/DX2                !
 ! D54   D(8,10,11,25)        -179.6631         estimate D2E/DX2                !
 ! D55   D(24,10,11,12)        179.8767         estimate D2E/DX2                !
 ! D56   D(24,10,11,25)         -0.0825         estimate D2E/DX2                !
 ! D57   D(10,11,12,13)         -0.1279         estimate D2E/DX2                !
 ! D58   D(10,11,12,26)       -179.6572         estimate D2E/DX2                !
 ! D59   D(25,11,12,13)        179.8311         estimate D2E/DX2                !
 ! D60   D(25,11,12,26)          0.3018         estimate D2E/DX2                !
 ! D61   D(11,12,13,9)          -0.0046         estimate D2E/DX2                !
 ! D62   D(11,12,13,31)       -179.993          estimate D2E/DX2                !
 ! D63   D(26,12,13,9)         179.5254         estimate D2E/DX2                !
 ! D64   D(26,12,13,31)         -0.4629         estimate D2E/DX2                !
 ! D65   D(11,12,26,27)        -87.004          estimate D2E/DX2                !
 ! D66   D(13,12,26,27)         93.469          estimate D2E/DX2                !
 ! D67   D(12,26,27,28)         64.8927         estimate D2E/DX2                !
 ! D68   D(12,26,27,29)       -176.1025         estimate D2E/DX2                !
 ! D69   D(12,26,27,30)        -57.1896         estimate D2E/DX2                !
 ! D70   D(21,32,34,33)         -0.4951         estimate D2E/DX2                !
 ! D71   D(21,32,34,35)        179.4277         estimate D2E/DX2                !
 ! D72   D(22,33,34,32)          0.1897         estimate D2E/DX2                !
 ! D73   D(22,33,34,35)       -179.7314         estimate D2E/DX2                !
 ! D74   D(32,34,35,36)       -179.7683         estimate D2E/DX2                !
 ! D75   D(32,34,35,37)         59.2008         estimate D2E/DX2                !
 ! D76   D(32,34,35,38)        -58.8489         estimate D2E/DX2                !
 ! D77   D(33,34,35,36)          0.1534         estimate D2E/DX2                !
 ! D78   D(33,34,35,37)       -120.8776         estimate D2E/DX2                !
 ! D79   D(33,34,35,38)        121.0727         estimate D2E/DX2                !
 ! D80   D(34,35,36,39)        -60.4495         estimate D2E/DX2                !
 ! D81   D(34,35,36,40)        179.9766         estimate D2E/DX2                !
 ! D82   D(34,35,36,41)         60.4498         estimate D2E/DX2                !
 ! D83   D(37,35,36,39)         60.4716         estimate D2E/DX2                !
 ! D84   D(37,35,36,40)        -59.1023         estimate D2E/DX2                !
 ! D85   D(37,35,36,41)       -178.6291         estimate D2E/DX2                !
 ! D86   D(38,35,36,39)        178.712          estimate D2E/DX2                !
 ! D87   D(38,35,36,40)         59.1382         estimate D2E/DX2                !
 ! D88   D(38,35,36,41)        -60.3886         estimate D2E/DX2                !
 --------------------------------------------------------------------------------
 Trust Radius=3.00D-01 FncErr=1.00D-07 GrdErr=1.00D-06
 Number of steps in this run=    213 maximum allowed number of steps=    246.
 GradGradGradGradGradGradGradGradGradGradGradGradGradGradGradGradGradGrad

                          Input orientation:                          
 ---------------------------------------------------------------------
 Center     Atomic      Atomic             Coordinates (Angstroms)
 Number     Number       Type             X           Y           Z
 ---------------------------------------------------------------------
      1          6           0       -1.806300    2.569590    0.243960
      2          6           0       -0.497130    1.791170    0.153100
      3          6           0        0.704950    2.736340    0.052590
      4          7           0        1.950260    1.992420   -0.044080
      5          6           0        3.153490    2.626570   -0.155750
      6          8           0        3.180550    3.846560   -0.172670
      7          7           0        4.304870    1.888170   -0.261300
      8          6           0        5.653530    2.383050   -0.399390
      9          6           0        6.014050    3.753700   -0.342890
     10          6           0        6.686310    1.444330   -0.605410
     11          6           0        8.015350    1.847220   -0.755430
     12          6           0        8.349220    3.200160   -0.697380
     13          6           0        7.347520    4.149450   -0.491220
     14          1           0       -2.657200    1.859610    0.313790
     15          1           0       -1.943580    3.200810   -0.659880
     16          1           0       -1.808520    3.217890    1.145970
     17          1           0       -0.530180    1.137250   -0.745560
     18          1           0       -0.393690    1.153240    1.057710
     19          1           0        0.735490    3.387720    0.953830
     20          1           0        0.590130    3.374030   -0.851740
     21          1           0        1.913990    0.852020   -0.032450
     22          1           0        4.179400    0.749040   -0.253930
     23          1           0        5.309930    4.548500   -0.182920
     24          1           0        6.470420    0.386550   -0.659020
     25          1           0        8.785290    1.103520   -0.917750
     26         16           0       10.056260    3.720930   -0.899210
     27          6           0       10.493650    3.538750    0.861210
     28          9           0       10.411920    2.211410    1.238720
     29          9           0       11.793460    3.971410    1.038810
     30          9           0        9.660880    4.312760    1.648170
     31          1           0        7.600960    5.201360   -0.445380
     32          8           0        1.922180   -1.203840    0.233430
     33          8           0        4.137930   -1.308980    0.026830
     34          6           0        3.079460   -1.896940    0.213160
     35          6           0        3.042250   -3.387150    0.423310
     36          6           0        4.425880   -4.035310    0.379840
     37          1           0        2.407840   -3.841830   -0.367170
     38          1           0        2.580990   -3.594770    1.412390
     39          1           0        4.902250   -3.863020   -0.608940
     40          1           0        4.328860   -5.129630    0.541310
     41          1           0        5.074050   -3.614940    1.178360
 ---------------------------------------------------------------------
                    Distance matrix (angstroms):
                    1          2          3          4          5
     1  C    0.000000
     2  C    1.525818   0.000000
     3  C    2.524045   1.532464   0.000000
     4  N    3.811540   2.463554   1.453808   0.000000
     5  C    4.976197   3.757700   2.459838   1.364690   0.000000
     6  O    5.164582   4.225646   2.722485   2.228897   1.220407
     7  N    6.169767   4.820824   3.711784   2.366905   1.371879
     8  C    7.489844   6.203724   4.981721   3.740728   2.523661
     9  C    7.931228   6.818577   5.420145   4.439120   3.080300
    10  C    8.608836   7.231697   6.154585   4.800590   3.752426
    11  C    9.898758   8.561010   7.408467   6.108389   4.960311
    12  C   10.218529   8.998137   7.694962   6.544626   5.255281
    13  C    9.318201   8.216761   6.812954   5.829505   4.474549
    14  H    1.110396   2.167120   3.484384   4.623245   5.879865
    15  H    1.110951   2.177209   2.781736   4.123276   5.154030
    16  H    1.110819   2.177399   2.782966   4.128731   5.163882
    17  H    2.158525   1.111887   2.172482   2.715874   4.016886
    18  H    2.159561   1.111744   2.173357   2.722548   4.028110
    19  H    2.762960   2.170137   1.112413   2.101988   2.767172
    20  H    2.755097   2.167322   1.112495   2.100265   2.759332
    21  H    4.106946   2.594211   2.240462   1.141036   2.168085
    22  H    6.276217   4.808497   4.014364   2.561073   2.141787
    23  H    7.398584   6.437214   4.954314   4.223767   2.888734
    24  H    8.607272   7.153967   6.266462   4.836199   4.033980
    25  H   10.755497   9.369253   8.300576   6.947739   5.883664
    26  S   11.973001  10.779859   9.451050   8.332240   7.028413
    27  C   12.353503  11.151354   9.854764   8.729273   7.466206
    28  F   12.263879  10.970986   9.793249   8.561146   7.402818
    29  F   13.694903  12.513854  11.200584  10.098398   8.825228
    30  F   11.683607  10.572550   9.232533   8.228083   6.960136
    31  H    9.792750   8.807192   7.340249   6.510664   5.147176
    32  O    5.304757   3.850922   4.127877   3.208407   4.042230
    33  O    7.101008   5.577693   5.305717   3.961082   4.060913
    34  C    6.619780   5.137875   5.208778   4.058126   4.539132
    35  C    7.682666   6.278154   6.564871   5.509144   6.042558
    36  C    9.082028   7.631206   7.733541   6.530079   6.803417
    37  H    7.696672   6.359263   6.807962   5.861078   6.514667
    38  H    7.655905   6.330007   6.741775   5.808254   6.441420
    39  H    9.333303   7.855181   7.848981   6.581754   6.736343
    40  H    9.849193   8.446204   8.674391   7.531535   7.875660
    41  H    9.298426   7.830404   7.790709   6.534134   6.665197
                    6          7          8          9         10
     6  O    0.000000
     7  N    2.259921   0.000000
     8  C    2.882515   1.443211   0.000000
     9  C    2.840127   2.531433   1.418396   0.000000
    10  C    4.271806   2.446766   1.410771   2.419512   0.000000
    11  C    5.264244   3.743461   2.447871   2.794648   1.396844
    12  C    5.235294   4.274137   2.832527   2.425920   2.420055
    13  C    4.190090   3.797890   2.449123   1.398843   2.787097
    14  H    6.185785   6.985840   8.357682   8.899965   9.397796
    15  H    5.187589   6.397266   7.645434   7.983110   8.806997
    16  H    5.198544   6.412652   7.665982   7.981002   8.852965
    17  H    4.630128   4.916919   6.317446   7.059384   7.224380
    18  H    4.641444   4.935218   6.340697   7.055721   7.278537
    19  H    2.730907   4.057791   5.198816   5.447809   6.451376
    20  H    2.719319   4.044217   5.179255   5.460951   6.399049
    21  H    3.254398   2.615776   4.057445   5.032555   4.842949
    22  H    3.255601   1.146043   2.205495   3.521624   2.625179
    23  H    2.242116   2.844933   2.203201   1.073817   3.421811
    24  H    4.799109   2.665080   2.172724   3.412611   1.080917
    25  H    6.284308   4.595733   3.422545   3.877330   2.149285
    26  S    6.915131   6.069961   4.628582   4.080445   4.077473
    27  C    7.392231   6.502726   5.133373   4.643584   4.586219
    28  F    7.547082   6.296873   5.035389   4.921525   4.227221
    29  F    8.698591   7.880936   6.503080   5.946265   5.930647
    30  F    6.747405   6.181550   4.896441   4.192402   4.706865
    31  H    4.631401   4.677106   3.425999   2.150467   3.870073
    32  O    5.220628   3.934780   5.214328   6.453894   5.514834
    33  O    5.247473   3.214445   4.013701   5.411769   3.804561
    34  C    5.757332   4.006719   5.031835   6.391459   4.984326
    35  C    7.259537   5.467349   6.386770   7.772413   6.138456
    36  C    7.998749   5.959305   6.581008   7.982061   6.008886
    37  H    7.729570   6.036790   7.020304   8.408176   6.804818
    38  H    7.631860   5.986287   6.961134   8.298610   6.805711
    39  H    7.911524   5.792573   6.294579   7.702033   5.599183
    40  H    9.077465   7.063588   7.686353   9.084890   7.077393
    41  H    7.815664   5.740077   6.229043   7.582523   5.601556
                   11         12         13         14         15
    11  C    0.000000
    12  C    1.394735   0.000000
    13  C    2.411652   1.395370   0.000000
    14  H   10.725983  11.133769  10.294942   0.000000
    15  H   10.050951  10.292868   9.340926   1.804468   0.000000
    16  H   10.099628  10.323659   9.347795   1.804912   1.810974
    17  H    8.574977   9.116011   8.437784   2.483594   2.502663
    18  H    8.630240   9.149246   8.444098   2.485126   3.089469
    19  H    7.634859   7.792981   6.810825   3.775595   3.133115
    20  H    7.581182   7.762573   6.811283   3.767901   2.546861
    21  H    6.224124   6.882447   6.372344   4.693708   4.559751
    22  H    4.021444   4.857163   4.653609   6.949444   6.608090
    23  H    3.865744   3.364517   2.099062   8.423302   7.393049
    24  H    2.128300   3.383454   3.867412   9.296758   8.872173
    25  H    1.082703   2.152817   3.395114  11.533384  10.934979
    26  S    2.774306   1.796085   2.772608  12.906120  12.013491
    27  C    3.408338   2.672532   3.478528  13.268912  12.534457
    28  F    3.138920   2.996805   4.017367  13.106531  12.539616
    29  F    4.691012   3.933443   4.705218  14.622138  13.863104
    30  F    3.816274   2.908597   3.155201  12.630661  11.883897
    31  H    3.393833   2.151325   1.082981  10.815428   9.754304
    32  O    6.885748   7.846558   7.656183   5.510164   5.928157
    33  O    5.060426   6.212229   6.353291   7.503073   7.602272
    34  C    6.270559   7.387820   7.434468   6.857920   7.209728
    35  C    7.315721   8.533026   8.727660   7.747530   8.332648
    36  C    6.984074   8.300905   8.734130   9.215447   9.696003
    37  H    7.997512   9.219472   9.395551   7.656680   8.283678
    38  H    7.990430   9.159404   9.290666   7.641716   8.422942
    39  H    6.505359   7.859894   8.378119   9.526028   9.836955
    40  H    7.996761   9.331830   9.812225   9.884648  10.496790
    41  H    6.498152   7.790425   8.260866   9.512645   9.953929
                   16         17         18         19         20
    16  H    0.000000
    17  H    3.088867   0.000000
    18  H    2.504459   1.808499   0.000000
    19  H    2.556902   3.091029   2.505741   0.000000
    20  H    3.125499   2.503908   3.089629   1.811463   0.000000
    21  H    4.565424   2.562001   2.569936   2.965027   2.963845
    22  H    6.626472   4.751058   4.774613   4.503536   4.486737
    23  H    7.362663   6.786757   6.752646   4.854391   4.909502
    24  H    8.933942   7.041267   7.116950   6.670662   6.598484
    25  H   10.998105   9.317122   9.389280   8.574361   8.504130
    26  S   12.050262  10.898244  10.937277   9.509024   9.472603
    27  C   12.309648  11.396216  11.147351   9.759768  10.051917
    28  F   12.262168  11.172320  10.858807   9.751829  10.108871
    29  F   13.623257  12.770612  12.508760  11.073690  11.377418
    30  F   11.532479  10.939447  10.555832   9.000022   9.455647
    31  H    9.747044   9.095193   9.086307   7.237524   7.256445
    32  O    5.856838   3.528908   3.405660   4.796836   4.889667
    33  O    7.556804   5.326526   5.259356   5.873237   5.940484
    34  C    7.136103   4.811959   4.698897   5.828415   5.925698
    35  C    8.226710   5.882067   5.729161   7.176452   7.304259
    36  C    9.594978   7.251512   7.113987   8.309622   8.433747
    37  H    8.361036   5.793650   5.901659   7.537121   7.457045
    38  H    8.108706   6.060375   5.614100   7.236803   7.593022
    39  H    9.912287   7.384623   7.482484   8.507489   8.427824
    40  H   10.378542   8.033685   7.876776   9.253525   9.393132
    41  H    9.698370   7.595536   7.255775   8.240799   8.548248
                   21         22         23         24         25
    21  H    0.000000
    22  H    2.278539   0.000000
    23  H    5.021854   3.964724   0.000000
    24  H    4.622803   2.354627   4.346865   0.000000
    25  H    6.932660   4.666962   4.948332   2.437132   0.000000
    26  S    8.676317   6.617099   4.870892   4.902451   2.909733
    27  C    9.034806   6.992551   5.383378   5.332339   3.466055
    28  F    8.699346   6.573495   5.789072   4.739932   2.919539
    29  F   10.415475   8.368319   6.622826   6.638419   4.593692
    30  F    8.649596   6.809164   4.726439   5.560331   4.201169
    31  H    7.171394   5.618441   2.396650   4.950369   4.291627
    32  O    2.072998   3.024285   6.688768   4.900234   7.331535
    33  O    3.101507   2.077497   5.977261   2.964072   5.320746
    34  C    2.995901   2.903317   6.831952   4.180148   6.545091
    35  C    4.410357   4.342791   8.275532   5.211967   7.412629
    36  C    5.510496   4.832434   8.647545   4.981187   6.862636
    37  H    4.731612   4.922127   8.879961   5.871025   8.088974
    38  H    4.722964   4.919372   8.735272   5.938797   8.123843
    39  H    5.611920   4.681842   8.432163   4.529957   6.311884
    40  H    6.476182   5.934097   9.754651   6.037824   7.800050
    41  H    5.604085   4.679335   8.279521   4.619279   6.358525
                   26         27         28         29         30
    26  S    0.000000
    27  C    1.823068   0.000000
    28  F    2.641191   1.382398   0.000000
    29  F    2.614675   1.381391   2.246379   0.000000
    30  F    2.644945   1.382716   2.268784   2.244045   0.000000
    31  H    2.902780   3.583170   4.435932   4.614396   3.068523
    32  O    9.575985   9.816128   9.205989  11.174704   9.608426
    33  O    7.822031   8.036906   7.295531   9.354879   8.045849
    34  C    9.026271   9.216122   8.467307  10.538170   9.161589
    35  C   10.073242  10.182495   9.290899  11.450368  10.227177
    36  C    9.669354   9.716786   8.694358  10.900598   9.934997
    37  H   10.769249  11.016451  10.162967  12.292817  11.097996
    38  H   10.711798  10.667760   9.750146  11.927122  10.616471
    39  H    9.174114   9.392087   8.406486  10.563245   9.725353
    40  H   10.640048  10.641794   9.559334  11.781201  10.900197
    41  H    9.107892   8.980419   7.902079  10.135218   9.171050
                   31         32         33         34         35
    31  H    0.000000
    32  O    8.586962   0.000000
    33  O    7.389187   2.227843   0.000000
    34  C    8.441771   1.349109   1.225061   0.000000
    35  C    9.762119   2.461190   2.382541   1.505415   0.000000
    36  C    9.801948   3.782482   2.764129   2.532441   1.528540
    37  H   10.428514   2.748741   3.092536   2.137862   1.110886
    38  H   10.296762   2.746001   3.093327   2.137581   1.110921
    39  H    9.459005   4.081868   2.740713   2.804261   2.179815
    40  H   10.881615   4.615054   3.859859   3.481231   2.169222
    41  H    9.313912   4.079287   2.742224   2.803841   2.179495
                   36         37         38         39         40
    36  C    0.000000
    37  H    2.160542   0.000000
    38  H    2.159596   1.804952   0.000000
    39  H    1.110990   2.506189   3.089657   0.000000
    40  H    1.110415   2.484770   2.483873   1.804481   0.000000
    41  H    1.111067   3.090116   2.504102   1.812595   1.804280
                   41
    41  H    0.000000
 Stoichiometry    C14H18F3N2O3S(1-)
 Framework group  C1[X(C14H18F3N2O3S)]
 Deg. of freedom   117
 Full point group                 C1      NOp   1
 Largest Abelian subgroup         C1      NOp   1
 Largest concise Abelian subgroup C1      NOp   1
                         Standard orientation:                         
 ---------------------------------------------------------------------
 Center     Atomic      Atomic             Coordinates (Angstroms)
 Number     Number       Type             X           Y           Z
 ---------------------------------------------------------------------
      1          6           0        6.564944   -3.206077    0.456074
      2          6           0        5.602365   -2.034882    0.283265
      3          6           0        4.151360   -2.518352    0.186907
      4          7           0        3.237084   -1.401610    0.012138
      5          6           0        1.891497   -1.593416   -0.110272
      6          8           0        1.449290   -2.730169   -0.069758
      7          7           0        1.063734   -0.514340   -0.290421
      8          6           0       -0.370474   -0.527415   -0.450850
      9          6           0       -1.178677   -1.687867   -0.341272
     10          6           0       -1.016722    0.693595   -0.736807
     11          6           0       -2.400857    0.759500   -0.912871
     12          6           0       -3.177990   -0.393317   -0.801679
     13          6           0       -2.564561   -1.613657   -0.516143
     14          1           0        7.606062   -2.825505    0.521010
     15          1           0        6.492524   -3.896445   -0.411313
     16          1           0        6.331070   -3.764191    1.387595
     17          1           0        5.871248   -1.483313   -0.643971
     18          1           0        5.708863   -1.349695    1.152260
     19          1           0        3.885663   -3.068246    1.116684
     20          1           0        4.055632   -3.207172   -0.681429
     21          1           0        3.660821   -0.342991   -0.029536
     22          1           0        1.570919    0.512473   -0.333228
     23          1           0       -0.791314   -2.664505   -0.119436
     24          1           0       -0.451416    1.609816   -0.833499
     25          1           0       -2.867497    1.710456   -1.136867
     26         16           0       -4.956776   -0.312275   -1.036787
     27          6           0       -5.333467    0.107360    0.696876
     28          9           0       -4.808927    1.346676    1.013069
     29          9           0       -6.705523    0.153931    0.850290
     30          9           0       -4.828083   -0.858052    1.548033
     31          1           0       -3.163019   -2.512024   -0.428776
     32          8           0        4.351688    1.604363    0.137304
     33          8           0        2.308949    2.445788   -0.149935
     34          6           0        3.501540    2.647763    0.044251
     35          6           0        4.042585    4.045617    0.184060
     36          6           0        2.964760    5.122596    0.062235
     37          1           0        4.806689    4.211560   -0.605039
     38          1           0        4.531245    4.139449    1.177314
     39          1           0        2.473976    5.067085   -0.932927
     40          1           0        3.427445    6.125770    0.174428
     41          1           0        2.199328    4.993995    0.857248
 ---------------------------------------------------------------------
 Rotational constants (GHZ):      0.3025184      0.0865897      0.0704730
 General basis read from cards:  (6D, 7F)
 There are   477 symmetry adapted cartesian basis functions of A   symmetry.
 There are   477 symmetry adapted basis functions of A   symmetry.
   477 basis functions,   832 primitive gaussians,   477 cartesian basis functions
    92 alpha electrons       92 beta electrons
       nuclear repulsion energy      2018.9564422025 Hartrees.
 NAtoms=   41 NActive=   41 NUniq=   41 SFac= 1.00D+00 NAtFMM=   60 NAOKFM=F Big=F
 Integral buffers will be    131072 words long.
 Raffenetti 2 integral format.
 Two-electron integral symmetry is turned on.
 ------------------------------------------------------------------------------
 Polarizable Continuum Model (PCM)
 =================================
 Model                : PCM (using non-symmetric T matrix).
 Atomic radii         : SMD-Coulomb.
 Polarization charges : Total charges.
 Charge compensation  : None.
 Solution method      : On-the-fly selection.
 Cavity type          : VdW (van der Waals Surface) (Alpha=1.000).
 Cavity algorithm     : GePol (No added spheres)
                        Default sphere list used, NSphG=   41.
                        Lebedev-Laikov grids with approx.  5.0 points / Ang**2.
                        Smoothing algorithm: York/Karplus (Gamma=1.0000).
                        Polarization charges: spherical gaussians, with
                                              point-specific exponents (IZeta= 3).
                        Self-potential: point-specific (ISelfS= 7).
                        Self-field    : sphere-specific E.n sum rule (ISelfD= 2).
 1st derivatives      : Analytical E(r).r(x)/FMM algorithm (CHGder, D1EAlg=3).
                        Cavity 1st derivative terms included.
 Solvent              : Water, Eps=  78.355300 Eps(inf)=   1.777849
 ------------------------------------------------------------------------------
 ------------------------------------------------------------------------------
 Atomic radii for non-electrostatic terms: SMD-CDS.
 ------------------------------------------------------------------------------
 Nuclear repulsion after PCM non-electrostatic terms =     2018.9714238919 Hartrees.
 One-electron integrals computed using PRISM.
 NBasis=   477 RedAO= T EigKep=  1.03D-06  NBF=   477
 NBsUse=   477 1.00D-06 EigRej= -1.00D+00 NBFU=   477
 ExpMin= 4.05D-02 ExpMax= 2.19D+04 ExpMxC= 3.30D+03 IAcc=3 IRadAn=         5 AccDes= 0.00D+00
 Harris functional with IExCor= 1009 and IRadAn=       5 diagonalized for initial guess.
 HarFok:  IExCor= 1009 AccDes= 0.00D+00 IRadAn=         5 IDoV= 1 UseB2=F ITyADJ=14
 ICtDFT=  3500011 ScaDFX=  1.000000  1.000000  1.000000  1.000000
 FoFCou: FMM=F IPFlag=           0 FMFlag=      100000 FMFlg1=           0
         NFxFlg=           0 DoJE=T BraDBF=F KetDBF=T FulRan=T
         wScrn=  0.000000 ICntrl=     500 IOpCl=  0 I1Cent=   200000004 NGrid=           0
         NMat0=    1 NMatS0=      1 NMatT0=    0 NMatD0=    1 NMtDS0=    0 NMtDT0=    0
 Petite list used in FoFCou.
 Requested convergence on RMS density matrix=1.00D-08 within 128 cycles.
 Requested convergence on MAX density matrix=1.00D-06.
 Requested convergence on             energy=1.00D-06.
 No special actions if energy rises.
 Inv3:  Mode=1 IEnd=    31453932.
 Iteration    1 A*A^-1 deviation from unit magnitude is 7.33D-15 for   3219.
 Iteration    1 A*A^-1 deviation from orthogonality  is 4.04D-15 for   2642   2362.
 Iteration    1 A^-1*A deviation from unit magnitude is 7.33D-15 for   3219.
 Iteration    1 A^-1*A deviation from orthogonality  is 2.67D-10 for   2132   2123.
 Iteration    2 A*A^-1 deviation from unit magnitude is 1.02D-14 for    808.
 Iteration    2 A*A^-1 deviation from orthogonality  is 7.43D-15 for   2469    400.
 Iteration    2 A^-1*A deviation from unit magnitude is 1.33D-15 for   1211.
 Iteration    2 A^-1*A deviation from orthogonality  is 8.35D-16 for   2469    400.
 Error on total polarization charges =  0.06655
 SCF Done:  E(RM062X) =  -1576.94513560     A.U. after   15 cycles
            NFock= 15  Conv=0.59D-08     -V/T= 2.0076
 SMD-CDS (non-electrostatic) energy       (kcal/mol) =       9.40
 (included in total energy above)

 **********************************************************************

            Population analysis using the SCF density.

 **********************************************************************

 Orbital symmetries:
       Occupied  (A) (A) (A) (A) (A) (A) (A) (A) (A) (A) (A) (A)
                 (A) (A) (A) (A) (A) (A) (A) (A) (A) (A) (A) (A)
                 (A) (A) (A) (A) (A) (A) (A) (A) (A) (A) (A) (A)
                 (A) (A) (A) (A) (A) (A) (A) (A) (A) (A) (A) (A)
                 (A) (A) (A) (A) (A) (A) (A) (A) (A) (A) (A) (A)
                 (A) (A) (A) (A) (A) (A) (A) (A) (A) (A) (A) (A)
                 (A) (A) (A) (A) (A) (A) (A) (A) (A) (A) (A) (A)
                 (A) (A) (A) (A) (A) (A) (A) (A)
       Virtual   (A) (A) (A) (A) (A) (A) (A) (A) (A) (A) (A) (A)
                 (A) (A) (A) (A) (A) (A) (A) (A) (A) (A) (A) (A)
                 (A) (A) (A) (A) (A) (A) (A) (A) (A) (A) (A) (A)
                 (A) (A) (A) (A) (A) (A) (A) (A) (A) (A) (A) (A)
                 (A) (A) (A) (A) (A) (A) (A) (A) (A) (A) (A) (A)
                 (A) (A) (A) (A) (A) (A) (A) (A) (A) (A) (A) (A)
                 (A) (A) (A) (A) (A) (A) (A) (A) (A) (A) (A) (A)
                 (A) (A) (A) (A) (A) (A) (A) (A) (A) (A) (A) (A)
                 (A) (A) (A) (A) (A) (A) (A) (A) (A) (A) (A) (A)
                 (A) (A) (A) (A) (A) (A) (A) (A) (A) (A) (A) (A)
                 (A) (A) (A) (A) (A) (A) (A) (A) (A) (A) (A) (A)
                 (A) (A) (A) (A) (A) (A) (A) (A) (A) (A) (A) (A)
                 (A) (A) (A) (A) (A) (A) (A) (A) (A) (A) (A) (A)
                 (A) (A) (A) (A) (A) (A) (A) (A) (A) (A) (A) (A)
                 (A) (A) (A) (A) (A) (A) (A) (A) (A) (A) (A) (A)
                 (A) (A) (A) (A) (A) (A) (A) (A) (A) (A) (A) (A)
                 (A) (A) (A) (A) (A) (A) (A) (A) (A) (A) (A) (A)
                 (A) (A) (A) (A) (A) (A) (A) (A) (A) (A) (A) (A)
                 (A) (A) (A) (A) (A) (A) (A) (A) (A) (A) (A) (A)
                 (A) (A) (A) (A) (A) (A) (A) (A) (A) (A) (A) (A)
                 (A) (A) (A) (A) (A) (A) (A) (A) (A) (A) (A) (A)
                 (A) (A) (A) (A) (A) (A) (A) (A) (A) (A) (A) (A)
                 (A) (A) (A) (A) (A) (A) (A) (A) (A) (A) (A) (A)
                 (A) (A) (A) (A) (A) (A) (A) (A) (A) (A) (A) (A)
                 (A) (A) (A) (A) (A) (A) (A) (A) (A) (A) (A) (A)
                 (A) (A) (A) (A) (A) (A) (A) (A) (A) (A) (A) (A)
                 (A) (A) (A) (A) (A) (A) (A) (A) (A) (A) (A) (A)
                 (A) (A) (A) (A) (A) (A) (A) (A) (A) (A) (A) (A)
                 (A) (A) (A) (A) (A) (A) (A) (A) (A) (A) (A) (A)
                 (A) (A) (A) (A) (A) (A) (A) (A) (A) (A) (A) (A)
                 (A) (A) (A) (A) (A) (A) (A) (A) (A) (A) (A) (A)
                 (A) (A) (A) (A) (A) (A) (A) (A) (A) (A) (A) (A)
                 (A)
 The electronic state is 1-A.
 Alpha  occ. eigenvalues --  -89.96006 -25.32070 -25.31857 -25.31853 -19.61379
 Alpha  occ. eigenvalues --  -19.61177 -19.59294 -14.80307 -14.77887 -10.84612
 Alpha  occ. eigenvalues --  -10.68243 -10.65211 -10.62294 -10.59307 -10.57606
 Alpha  occ. eigenvalues --  -10.57033 -10.56906 -10.56325 -10.55998 -10.54321
 Alpha  occ. eigenvalues --  -10.54241 -10.53268 -10.53239  -8.30413  -6.22497
 Alpha  occ. eigenvalues --   -6.22243  -6.21778  -1.45718  -1.38064  -1.38036
 Alpha  occ. eigenvalues --   -1.18327  -1.16699  -1.03999  -1.03578  -1.00837
 Alpha  occ. eigenvalues --   -0.97103  -0.90999  -0.87168  -0.86000  -0.85519
 Alpha  occ. eigenvalues --   -0.84003  -0.78575  -0.76076  -0.71928  -0.71241
 Alpha  occ. eigenvalues --   -0.69994  -0.69414  -0.69039  -0.66583  -0.64932
 Alpha  occ. eigenvalues --   -0.64064  -0.61082  -0.60069  -0.58576  -0.57970
 Alpha  occ. eigenvalues --   -0.57874  -0.55201  -0.55097  -0.54790  -0.53999
 Alpha  occ. eigenvalues --   -0.53225  -0.52985  -0.52925  -0.52889  -0.52575
 Alpha  occ. eigenvalues --   -0.51640  -0.50500  -0.50120  -0.49569  -0.48506
 Alpha  occ. eigenvalues --   -0.47051  -0.45826  -0.45529  -0.45373  -0.43903
 Alpha  occ. eigenvalues --   -0.43619  -0.41913  -0.41522  -0.41300  -0.40902
 Alpha  occ. eigenvalues --   -0.39779  -0.39126  -0.38949  -0.37491  -0.34928
 Alpha  occ. eigenvalues --   -0.33112  -0.32973  -0.32925  -0.31896  -0.31628
 Alpha  occ. eigenvalues --   -0.31411  -0.27484
 Alpha virt. eigenvalues --   -0.00591   0.00985   0.01385   0.02288   0.02614
 Alpha virt. eigenvalues --    0.03423   0.03500   0.04010   0.04230   0.04395
 Alpha virt. eigenvalues --    0.04545   0.05102   0.05650   0.06144   0.06297
 Alpha virt. eigenvalues --    0.06628   0.07123   0.07137   0.07510   0.07608
 Alpha virt. eigenvalues --    0.07866   0.08401   0.08786   0.09115   0.09300
 Alpha virt. eigenvalues --    0.09429   0.09907   0.10153   0.10427   0.11170
 Alpha virt. eigenvalues --    0.11389   0.11665   0.12063   0.12234   0.12336
 Alpha virt. eigenvalues --    0.12852   0.13170   0.13511   0.14045   0.14295
 Alpha virt. eigenvalues --    0.14873   0.15344   0.15747   0.16009   0.16239
 Alpha virt. eigenvalues --    0.16752   0.16866   0.17400   0.17561   0.17970
 Alpha virt. eigenvalues --    0.18144   0.18663   0.19385   0.19549   0.19833
 Alpha virt. eigenvalues --    0.20386   0.20688   0.21174   0.21477   0.22056
 Alpha virt. eigenvalues --    0.22180   0.22639   0.23041   0.23578   0.23841
 Alpha virt. eigenvalues --    0.24152   0.24528   0.24777   0.25025   0.25335
 Alpha virt. eigenvalues --    0.25489   0.25724   0.26459   0.26680   0.26991
 Alpha virt. eigenvalues --    0.27091   0.27547   0.27667   0.27896   0.28271
 Alpha virt. eigenvalues --    0.28522   0.28714   0.29543   0.29734   0.30483
 Alpha virt. eigenvalues --    0.30647   0.30884   0.31078   0.31535   0.31682
 Alpha virt. eigenvalues --    0.31996   0.32381   0.32564   0.32922   0.33021
 Alpha virt. eigenvalues --    0.33625   0.34031   0.34400   0.34673   0.35409
 Alpha virt. eigenvalues --    0.35584   0.35793   0.36230   0.36491   0.36940
 Alpha virt. eigenvalues --    0.37332   0.37547   0.38354   0.38786   0.39169
 Alpha virt. eigenvalues --    0.39441   0.39847   0.40028   0.40730   0.40869
 Alpha virt. eigenvalues --    0.41680   0.42066   0.42931   0.44099   0.44298
 Alpha virt. eigenvalues --    0.44679   0.45275   0.45896   0.46561   0.48292
 Alpha virt. eigenvalues --    0.48483   0.48738   0.49638   0.51070   0.51652
 Alpha virt. eigenvalues --    0.52616   0.53732   0.54549   0.54818   0.57758
 Alpha virt. eigenvalues --    0.58836   0.59263   0.61493   0.65075   0.65506
 Alpha virt. eigenvalues --    0.68811   0.70487   0.70576   0.71114   0.71672
 Alpha virt. eigenvalues --    0.72066   0.73375   0.73615   0.74780   0.74909
 Alpha virt. eigenvalues --    0.75573   0.76308   0.77095   0.77119   0.77744
 Alpha virt. eigenvalues --    0.78848   0.79255   0.80508   0.81378   0.82268
 Alpha virt. eigenvalues --    0.82528   0.83616   0.85336   0.85795   0.86308
 Alpha virt. eigenvalues --    0.86981   0.88618   0.88804   0.89247   0.90281
 Alpha virt. eigenvalues --    0.90910   0.92420   0.92925   0.94525   0.95903
 Alpha virt. eigenvalues --    0.96170   0.96970   0.98707   0.99062   0.99444
 Alpha virt. eigenvalues --    1.00019   1.00894   1.01268   1.01595   1.02786
 Alpha virt. eigenvalues --    1.03851   1.04530   1.05674   1.06047   1.06404
 Alpha virt. eigenvalues --    1.07006   1.07545   1.09127   1.09725   1.11834
 Alpha virt. eigenvalues --    1.12300   1.13752   1.14531   1.14606   1.15577
 Alpha virt. eigenvalues --    1.16192   1.17233   1.18178   1.18464   1.19220
 Alpha virt. eigenvalues --    1.21674   1.22694   1.24539   1.25038   1.27003
 Alpha virt. eigenvalues --    1.27914   1.29439   1.30083   1.30302   1.31157
 Alpha virt. eigenvalues --    1.32244   1.32964   1.34170   1.34955   1.36042
 Alpha virt. eigenvalues --    1.36832   1.37419   1.39757   1.40505   1.41071
 Alpha virt. eigenvalues --    1.42510   1.43246   1.44157   1.45557   1.45952
 Alpha virt. eigenvalues --    1.46385   1.47151   1.48786   1.49639   1.50899
 Alpha virt. eigenvalues --    1.51712   1.52494   1.53699   1.54716   1.55051
 Alpha virt. eigenvalues --    1.56732   1.57662   1.58559   1.60074   1.60764
 Alpha virt. eigenvalues --    1.63040   1.64158   1.65423   1.66730   1.67460
 Alpha virt. eigenvalues --    1.68864   1.70745   1.71089   1.72657   1.73570
 Alpha virt. eigenvalues --    1.73652   1.75047   1.75486   1.76029   1.80156
 Alpha virt. eigenvalues --    1.80955   1.83049   1.84258   1.84978   1.86615
 Alpha virt. eigenvalues --    1.86823   1.88215   1.88255   1.88448   1.89034
 Alpha virt. eigenvalues --    1.89369   1.89556   1.90255   1.90859   1.91397
 Alpha virt. eigenvalues --    1.91552   1.92108   1.93301   1.94640   1.94834
 Alpha virt. eigenvalues --    1.96423   1.96963   1.97652   1.98891   2.00108
 Alpha virt. eigenvalues --    2.00802   2.02268   2.03652   2.03862   2.04035
 Alpha virt. eigenvalues --    2.05231   2.05619   2.05821   2.06860   2.07271
 Alpha virt. eigenvalues --    2.07927   2.10009   2.10426   2.11092   2.11693
 Alpha virt. eigenvalues --    2.12520   2.13801   2.15909   2.17078   2.17656
 Alpha virt. eigenvalues --    2.18484   2.20160   2.21272   2.22757   2.25069
 Alpha virt. eigenvalues --    2.25313   2.27802   2.28738   2.29621   2.29953
 Alpha virt. eigenvalues --    2.31065   2.31209   2.32627   2.33214   2.35079
 Alpha virt. eigenvalues --    2.35739   2.37344   2.38425   2.38885   2.39842
 Alpha virt. eigenvalues --    2.41445   2.43051   2.49615   2.55095   2.55209
 Alpha virt. eigenvalues --    2.57104   2.58795   2.61959   2.62650   2.65285
 Alpha virt. eigenvalues --    2.66892   2.67660   2.68058   2.70557   2.71310
 Alpha virt. eigenvalues --    2.73256   2.73901   2.76248   2.79544   2.79735
 Alpha virt. eigenvalues --    2.80528   2.80985   2.82251   2.87564   2.91355
 Alpha virt. eigenvalues --    2.99100   3.02706   3.05602   3.12100   3.12729
 Alpha virt. eigenvalues --    3.15318   3.16602   3.18240   3.25346   3.27103
 Alpha virt. eigenvalues --    3.31594   3.40229   4.01850   4.20235   4.22220
 Alpha virt. eigenvalues --    4.28439   4.30354   4.33122   4.33525   4.40237
 Alpha virt. eigenvalues --    4.42897   4.43608   4.45122   4.46487   4.50211
 Alpha virt. eigenvalues --    4.52202   4.54184   4.57832   4.64322   4.70186
 Alpha virt. eigenvalues --    4.74231   4.79110   5.55564   5.67644   6.27686
          Condensed to atoms (all electrons):
               1          2          3          4          5          6
     1  C    5.805706  -0.161368   0.047515  -0.010722  -0.061732  -0.001722
     2  C   -0.161368   6.236413  -0.437002  -0.052083   0.175493   0.018320
     3  C    0.047515  -0.437002   7.226927   0.310571  -0.763984  -0.080976
     4  N   -0.010722  -0.052083   0.310571   7.644116   0.548486  -0.191320
     5  C   -0.061732   0.175493  -0.763984   0.548486   6.981722   0.598620
     6  O   -0.001722   0.018320  -0.080976  -0.191320   0.598620   8.504603
     7  N   -0.005654   0.011902  -0.209801  -0.332961   0.249482  -0.091920
     8  C   -0.010602   0.024101  -0.392214  -0.172587  -0.829153  -0.397265
     9  C   -0.001594  -0.004513  -0.059792   0.005490   0.785926   0.337978
    10  C   -0.002141   0.006956  -0.115589  -0.095748  -1.408162  -0.157145
    11  C    0.000034  -0.000497   0.018018  -0.004003   0.403022  -0.000933
    12  C   -0.000217   0.000745  -0.030659  -0.009870  -0.516350   0.007090
    13  C   -0.001270  -0.001632  -0.054886  -0.021319  -0.720620   0.187721
    14  H    0.435506  -0.109094   0.026735   0.000350  -0.002354   0.000005
    15  H    0.424388  -0.070695  -0.010464   0.000375   0.000396  -0.000035
    16  H    0.423114  -0.071035  -0.008500   0.000419   0.000104  -0.000046
    17  H   -0.018822   0.413165  -0.078115   0.006821  -0.007408  -0.000202
    18  H   -0.027896   0.425994  -0.088147   0.007253  -0.001272  -0.000053
    19  H   -0.001086  -0.044800   0.432896  -0.050510  -0.030236   0.002143
    20  H   -0.004182  -0.041880   0.444745  -0.053840  -0.037436   0.003624
    21  H   -0.001690   0.001507  -0.062789   0.190279   0.027519   0.005643
    22  H    0.000123   0.000710   0.005136   0.026611  -0.026356   0.004412
    23  H   -0.000009   0.000191  -0.000351  -0.001327  -0.025852  -0.003539
    24  H   -0.000001   0.000016  -0.000100   0.000849   0.003660   0.000034
    25  H    0.000000   0.000000   0.000020  -0.000000   0.003135  -0.000001
    26  S   -0.000009   0.000009  -0.001594  -0.000473  -0.064320   0.000370
    27  C    0.000001  -0.000002   0.000183   0.000059   0.011024  -0.000022
    28  F   -0.000000   0.000000  -0.000003   0.000000  -0.000705   0.000001
    29  F    0.000000  -0.000000  -0.000000   0.000000  -0.000024   0.000000
    30  F   -0.000000   0.000000  -0.000012  -0.000002  -0.001948  -0.000003
    31  H   -0.000000   0.000002   0.000024   0.000003   0.001146   0.000204
    32  O    0.003309   0.006907  -0.012577  -0.027539   0.001796  -0.000412
    33  O    0.000118  -0.000904   0.009928   0.007682   0.011907  -0.000111
    34  C   -0.001572  -0.004190   0.002517  -0.009945  -0.012296  -0.000543
    35  C    0.001215  -0.000417   0.011108  -0.006072  -0.005047  -0.000358
    36  C   -0.000144  -0.000344  -0.000484   0.001334  -0.000311   0.000040
    37  H   -0.000003   0.000009  -0.000022  -0.000007   0.000077  -0.000000
    38  H    0.000011   0.000055  -0.000035  -0.000031  -0.000138  -0.000000
    39  H    0.000000   0.000007  -0.000009   0.000002  -0.000139   0.000000
    40  H    0.000000   0.000001  -0.000002  -0.000001   0.000011   0.000000
    41  H   -0.000000   0.000002  -0.000010  -0.000004   0.000026  -0.000000
               7          8          9         10         11         12
     1  C   -0.005654  -0.010602  -0.001594  -0.002141   0.000034  -0.000217
     2  C    0.011902   0.024101  -0.004513   0.006956  -0.000497   0.000745
     3  C   -0.209801  -0.392214  -0.059792  -0.115589   0.018018  -0.030659
     4  N   -0.332961  -0.172587   0.005490  -0.095748  -0.004003  -0.009870
     5  C    0.249482  -0.829153   0.785926  -1.408162   0.403022  -0.516350
     6  O   -0.091920  -0.397265   0.337978  -0.157145  -0.000933   0.007090
     7  N    7.769342   0.204212   0.020162  -0.016817   0.005132  -0.032542
     8  C    0.204212  11.203624  -1.601452  -1.368457   1.706132  -2.036928
     9  C    0.020162  -1.601452  20.595858  -0.880574  -3.659782   0.786346
    10  C   -0.016817  -1.368457  -0.880574  17.767351  -7.450528   2.972413
    11  C    0.005132   1.706132  -3.659782  -7.450528  15.523061  -2.853762
    12  C   -0.032542  -2.036928   0.786346   2.972413  -2.853762   9.233270
    13  C   -0.080465  -0.284295  -9.986301  -2.915642   2.222345  -0.988326
    14  H    0.000007  -0.000040   0.000001  -0.000001   0.000000  -0.000000
    15  H    0.000018  -0.000012  -0.000008  -0.000004  -0.000000   0.000000
    16  H    0.000008   0.000015  -0.000051   0.000004   0.000000  -0.000000
    17  H   -0.000270  -0.000102  -0.000545   0.000209   0.000000  -0.000001
    18  H    0.000258  -0.001086   0.000313  -0.000047   0.000002  -0.000001
    19  H   -0.001224   0.002452  -0.003106   0.000756  -0.000034   0.000002
    20  H    0.000709  -0.006876   0.002844  -0.000727   0.000067  -0.000036
    21  H    0.029473   0.007820   0.004403  -0.001069   0.000477  -0.000045
    22  H    0.181335   0.041601   0.038368  -0.098072   0.004323  -0.001319
    23  H   -0.012202   0.038458   0.206075   0.057881  -0.030176   0.032353
    24  H   -0.002725  -0.014848   0.045116   0.246857   0.027143   0.033694
    25  H    0.000249   0.055868  -0.044381  -0.150100   0.430510  -0.032650
    26  S   -0.005551  -0.194482  -0.977845  -0.022583   0.087450  -0.459280
    27  C    0.001254   0.079238   0.180035  -0.028405   0.123491  -0.159248
    28  F   -0.000010  -0.018392   0.014201   0.027867   0.035029   0.012448
    29  F    0.000002  -0.003824   0.006145   0.006824  -0.011335   0.026377
    30  F   -0.000087  -0.023043  -0.056074   0.046216  -0.124180   0.051577
    31  H   -0.000779   0.036103  -0.070898  -0.052986   0.064294  -0.017111
    32  O    0.010828  -0.000394  -0.002049   0.002452  -0.000158  -0.000231
    33  O   -0.002164  -0.100623  -0.007250   0.058867   0.030472  -0.000461
    34  C   -0.008542   0.009545   0.000315   0.008220  -0.017833   0.002503
    35  C   -0.014150   0.008576   0.003508  -0.018491  -0.001781  -0.001735
    36  C    0.003132  -0.016075  -0.002724   0.011445   0.004800   0.000809
    37  H    0.000073  -0.000647  -0.000044   0.000579   0.000106  -0.000001
    38  H    0.000050   0.000087  -0.000006  -0.000030  -0.000062   0.000001
    39  H    0.000001   0.001148   0.000101  -0.000411  -0.001278  -0.000004
    40  H   -0.000001   0.000082   0.000004  -0.000078  -0.000015   0.000000
    41  H    0.000057  -0.002422  -0.000187   0.001271   0.001406   0.000034
              13         14         15         16         17         18
     1  C   -0.001270   0.435506   0.424388   0.423114  -0.018822  -0.027896
     2  C   -0.001632  -0.109094  -0.070695  -0.071035   0.413165   0.425994
     3  C   -0.054886   0.026735  -0.010464  -0.008500  -0.078115  -0.088147
     4  N   -0.021319   0.000350   0.000375   0.000419   0.006821   0.007253
     5  C   -0.720620  -0.002354   0.000396   0.000104  -0.007408  -0.001272
     6  O    0.187721   0.000005  -0.000035  -0.000046  -0.000202  -0.000053
     7  N   -0.080465   0.000007   0.000018   0.000008  -0.000270   0.000258
     8  C   -0.284295  -0.000040  -0.000012   0.000015  -0.000102  -0.001086
     9  C   -9.986301   0.000001  -0.000008  -0.000051  -0.000545   0.000313
    10  C   -2.915642  -0.000001  -0.000004   0.000004   0.000209  -0.000047
    11  C    2.222345   0.000000  -0.000000   0.000000   0.000000   0.000002
    12  C   -0.988326  -0.000000   0.000000  -0.000000  -0.000001  -0.000001
    13  C   18.126339   0.000000  -0.000002  -0.000004  -0.000048   0.000024
    14  H    0.000000   0.482212  -0.024009  -0.023904  -0.003142  -0.003107
    15  H   -0.000002  -0.024009   0.488076  -0.028556  -0.004660   0.003777
    16  H   -0.000004  -0.023904  -0.028556   0.487911   0.003786  -0.004625
    17  H   -0.000048  -0.003142  -0.004660   0.003786   0.489596  -0.031381
    18  H    0.000024  -0.003107   0.003777  -0.004625  -0.031381   0.489569
    19  H   -0.000257  -0.000056  -0.000296   0.002701   0.003801  -0.005337
    20  H    0.000654  -0.000053   0.002819  -0.000319  -0.005288   0.003817
    21  H    0.000790  -0.000002  -0.000000   0.000000   0.000672   0.000572
    22  H    0.016162  -0.000000  -0.000000   0.000000   0.000001   0.000001
    23  H    0.039427  -0.000000  -0.000000   0.000000  -0.000000  -0.000000
    24  H   -0.039313  -0.000000   0.000000   0.000000  -0.000000   0.000000
    25  H    0.057578  -0.000000   0.000000   0.000000   0.000000  -0.000000
    26  S    0.775321  -0.000000  -0.000000  -0.000000  -0.000000  -0.000000
    27  C   -0.075781   0.000000   0.000000   0.000000   0.000000   0.000000
    28  F   -0.071004   0.000000   0.000000  -0.000000  -0.000000   0.000000
    29  F   -0.007107   0.000000   0.000000   0.000000   0.000000  -0.000000
    30  F    0.105399   0.000000   0.000000   0.000000  -0.000000   0.000000
    31  H    0.360389  -0.000000   0.000000   0.000000   0.000000   0.000000
    32  O    0.000947  -0.000021  -0.000001  -0.000001  -0.000646  -0.000146
    33  O   -0.001074  -0.000000   0.000000   0.000000   0.000002   0.000011
    34  C   -0.003764  -0.000031  -0.000016  -0.000002  -0.000395  -0.000622
    35  C   -0.000855   0.000018  -0.000003  -0.000000   0.000285  -0.000430
    36  C   -0.000125  -0.000000  -0.000000  -0.000000  -0.000015  -0.000013
    37  H    0.000002  -0.000000   0.000000   0.000000  -0.000000   0.000000
    38  H   -0.000002  -0.000000   0.000000  -0.000000  -0.000000  -0.000000
    39  H   -0.000017   0.000000   0.000000  -0.000000  -0.000000  -0.000000
    40  H    0.000000   0.000000  -0.000000  -0.000000  -0.000000  -0.000000
    41  H    0.000019   0.000000  -0.000000   0.000000   0.000000  -0.000000
              19         20         21         22         23         24
     1  C   -0.001086  -0.004182  -0.001690   0.000123  -0.000009  -0.000001
     2  C   -0.044800  -0.041880   0.001507   0.000710   0.000191   0.000016
     3  C    0.432896   0.444745  -0.062789   0.005136  -0.000351  -0.000100
     4  N   -0.050510  -0.053840   0.190279   0.026611  -0.001327   0.000849
     5  C   -0.030236  -0.037436   0.027519  -0.026356  -0.025852   0.003660
     6  O    0.002143   0.003624   0.005643   0.004412  -0.003539   0.000034
     7  N   -0.001224   0.000709   0.029473   0.181335  -0.012202  -0.002725
     8  C    0.002452  -0.006876   0.007820   0.041601   0.038458  -0.014848
     9  C   -0.003106   0.002844   0.004403   0.038368   0.206075   0.045116
    10  C    0.000756  -0.000727  -0.001069  -0.098072   0.057881   0.246857
    11  C   -0.000034   0.000067   0.000477   0.004323  -0.030176   0.027143
    12  C    0.000002  -0.000036  -0.000045  -0.001319   0.032353   0.033694
    13  C   -0.000257   0.000654   0.000790   0.016162   0.039427  -0.039313
    14  H   -0.000056  -0.000053  -0.000002  -0.000000  -0.000000  -0.000000
    15  H   -0.000296   0.002819  -0.000000  -0.000000  -0.000000   0.000000
    16  H    0.002701  -0.000319   0.000000   0.000000   0.000000   0.000000
    17  H    0.003801  -0.005288   0.000672   0.000001  -0.000000  -0.000000
    18  H   -0.005337   0.003817   0.000572   0.000001  -0.000000   0.000000
    19  H    0.500002  -0.040748   0.001760   0.000003  -0.000001  -0.000000
    20  H   -0.040748   0.501027   0.001606   0.000005   0.000000   0.000000
    21  H    0.001760   0.001606   0.262157   0.003474   0.000001   0.000003
    22  H    0.000003   0.000005   0.003474   0.259321  -0.000084   0.004470
    23  H   -0.000001   0.000000   0.000001  -0.000084   0.428171  -0.000095
    24  H   -0.000000   0.000000   0.000003   0.004470  -0.000095   0.434946
    25  H    0.000000  -0.000000   0.000000  -0.000008   0.000011  -0.003838
    26  S   -0.000000  -0.000000   0.000000   0.000283   0.000200  -0.000404
    27  C   -0.000000   0.000000  -0.000000  -0.000023  -0.000396  -0.000045
    28  F    0.000000  -0.000000   0.000000  -0.000000  -0.000002   0.000002
    29  F    0.000000  -0.000000  -0.000000  -0.000000  -0.000001  -0.000001
    30  F    0.000000  -0.000000   0.000000  -0.000000   0.000003  -0.000004
    31  H    0.000000  -0.000000  -0.000000   0.000001  -0.004405   0.000011
    32  O   -0.000050   0.000012   0.041134   0.002152   0.000000   0.000000
    33  O   -0.000006   0.000001   0.001236   0.037613   0.000004  -0.001252
    34  C    0.000319  -0.000004  -0.005897  -0.004588  -0.000029  -0.000484
    35  C    0.000070  -0.000010   0.001625   0.003431  -0.000003   0.001259
    36  C   -0.000001   0.000001  -0.000314  -0.000156   0.000000  -0.000329
    37  H    0.000000  -0.000000  -0.000002  -0.000006   0.000000  -0.000000
    38  H   -0.000000  -0.000000  -0.000000  -0.000005  -0.000000   0.000000
    39  H   -0.000000   0.000000   0.000000  -0.000001  -0.000000   0.000001
    40  H   -0.000000  -0.000000   0.000000   0.000000  -0.000000   0.000000
    41  H    0.000000  -0.000000   0.000000  -0.000000   0.000000   0.000000
              25         26         27         28         29         30
     1  C    0.000000  -0.000009   0.000001  -0.000000   0.000000  -0.000000
     2  C    0.000000   0.000009  -0.000002   0.000000  -0.000000   0.000000
     3  C    0.000020  -0.001594   0.000183  -0.000003  -0.000000  -0.000012
     4  N   -0.000000  -0.000473   0.000059   0.000000   0.000000  -0.000002
     5  C    0.003135  -0.064320   0.011024  -0.000705  -0.000024  -0.001948
     6  O   -0.000001   0.000370  -0.000022   0.000001   0.000000  -0.000003
     7  N    0.000249  -0.005551   0.001254  -0.000010   0.000002  -0.000087
     8  C    0.055868  -0.194482   0.079238  -0.018392  -0.003824  -0.023043
     9  C   -0.044381  -0.977845   0.180035   0.014201   0.006145  -0.056074
    10  C   -0.150100  -0.022583  -0.028405   0.027867   0.006824   0.046216
    11  C    0.430510   0.087450   0.123491   0.035029  -0.011335  -0.124180
    12  C   -0.032650  -0.459280  -0.159248   0.012448   0.026377   0.051577
    13  C    0.057578   0.775321  -0.075781  -0.071004  -0.007107   0.105399
    14  H   -0.000000  -0.000000   0.000000   0.000000   0.000000   0.000000
    15  H    0.000000  -0.000000   0.000000   0.000000   0.000000   0.000000
    16  H    0.000000  -0.000000   0.000000  -0.000000   0.000000   0.000000
    17  H    0.000000  -0.000000   0.000000  -0.000000   0.000000  -0.000000
    18  H   -0.000000  -0.000000   0.000000   0.000000  -0.000000   0.000000
    19  H    0.000000  -0.000000  -0.000000   0.000000   0.000000   0.000000
    20  H   -0.000000  -0.000000   0.000000  -0.000000  -0.000000  -0.000000
    21  H    0.000000   0.000000  -0.000000   0.000000  -0.000000   0.000000
    22  H   -0.000008   0.000283  -0.000023  -0.000000  -0.000000  -0.000000
    23  H    0.000011   0.000200  -0.000396  -0.000002  -0.000001   0.000003
    24  H   -0.003838  -0.000404  -0.000045   0.000002  -0.000001  -0.000004
    25  H    0.428468  -0.010421  -0.001544  -0.000428  -0.000075   0.000072
    26  S   -0.010421  16.482295   0.138654  -0.070403  -0.092684  -0.062942
    27  C   -0.001544   0.138654   4.728913   0.141022   0.162561   0.140205
    28  F   -0.000428  -0.070403   0.141022   9.293765  -0.032546  -0.048767
    29  F   -0.000075  -0.092684   0.162561  -0.032546   9.273202  -0.031029
    30  F    0.000072  -0.062942   0.140205  -0.048767  -0.031029   9.282565
    31  H   -0.000126  -0.011104  -0.000004   0.000018  -0.000061  -0.000936
    32  O    0.000000  -0.000007   0.000000   0.000000   0.000000  -0.000000
    33  O   -0.000004  -0.000057   0.000001  -0.000000   0.000000   0.000000
    34  C   -0.000021  -0.000097   0.000013   0.000001   0.000000   0.000001
    35  C   -0.000008  -0.000034   0.000017  -0.000001  -0.000000  -0.000000
    36  C   -0.000004   0.000008  -0.000004   0.000000   0.000000   0.000000
    37  H   -0.000000   0.000000  -0.000000  -0.000000  -0.000000   0.000000
    38  H    0.000000  -0.000000   0.000000   0.000000   0.000000  -0.000000
    39  H    0.000000  -0.000001   0.000000   0.000000   0.000000  -0.000000
    40  H   -0.000000   0.000000  -0.000000  -0.000000  -0.000000   0.000000
    41  H   -0.000000   0.000001  -0.000000  -0.000000  -0.000000   0.000000
              31         32         33         34         35         36
     1  C   -0.000000   0.003309   0.000118  -0.001572   0.001215  -0.000144
     2  C    0.000002   0.006907  -0.000904  -0.004190  -0.000417  -0.000344
     3  C    0.000024  -0.012577   0.009928   0.002517   0.011108  -0.000484
     4  N    0.000003  -0.027539   0.007682  -0.009945  -0.006072   0.001334
     5  C    0.001146   0.001796   0.011907  -0.012296  -0.005047  -0.000311
     6  O    0.000204  -0.000412  -0.000111  -0.000543  -0.000358   0.000040
     7  N   -0.000779   0.010828  -0.002164  -0.008542  -0.014150   0.003132
     8  C    0.036103  -0.000394  -0.100623   0.009545   0.008576  -0.016075
     9  C   -0.070898  -0.002049  -0.007250   0.000315   0.003508  -0.002724
    10  C   -0.052986   0.002452   0.058867   0.008220  -0.018491   0.011445
    11  C    0.064294  -0.000158   0.030472  -0.017833  -0.001781   0.004800
    12  C   -0.017111  -0.000231  -0.000461   0.002503  -0.001735   0.000809
    13  C    0.360389   0.000947  -0.001074  -0.003764  -0.000855  -0.000125
    14  H   -0.000000  -0.000021  -0.000000  -0.000031   0.000018  -0.000000
    15  H    0.000000  -0.000001   0.000000  -0.000016  -0.000003  -0.000000
    16  H    0.000000  -0.000001   0.000000  -0.000002  -0.000000  -0.000000
    17  H    0.000000  -0.000646   0.000002  -0.000395   0.000285  -0.000015
    18  H    0.000000  -0.000146   0.000011  -0.000622  -0.000430  -0.000013
    19  H    0.000000  -0.000050  -0.000006   0.000319   0.000070  -0.000001
    20  H   -0.000000   0.000012   0.000001  -0.000004  -0.000010   0.000001
    21  H   -0.000000   0.041134   0.001236  -0.005897   0.001625  -0.000314
    22  H    0.000001   0.002152   0.037613  -0.004588   0.003431  -0.000156
    23  H   -0.004405   0.000000   0.000004  -0.000029  -0.000003   0.000000
    24  H    0.000011   0.000000  -0.001252  -0.000484   0.001259  -0.000329
    25  H   -0.000126   0.000000  -0.000004  -0.000021  -0.000008  -0.000004
    26  S   -0.011104  -0.000007  -0.000057  -0.000097  -0.000034   0.000008
    27  C   -0.000004   0.000000   0.000001   0.000013   0.000017  -0.000004
    28  F    0.000018   0.000000  -0.000000   0.000001  -0.000001   0.000000
    29  F   -0.000061   0.000000   0.000000   0.000000  -0.000000   0.000000
    30  F   -0.000936  -0.000000   0.000000   0.000001  -0.000000   0.000000
    31  H    0.429831  -0.000000  -0.000000  -0.000000  -0.000000   0.000000
    32  O   -0.000000   8.819785  -0.177795   0.410641  -0.230110   0.022788
    33  O   -0.000000  -0.177795   8.627780   0.275123  -0.105706   0.039912
    34  C   -0.000000   0.410641   0.275123   5.159517  -0.298100  -0.103656
    35  C   -0.000000  -0.230110  -0.105706  -0.298100   6.545903  -0.061316
    36  C    0.000000   0.022788   0.039912  -0.103656  -0.061316   5.705628
    37  H   -0.000000  -0.001504   0.002674  -0.053556   0.412829  -0.045605
    38  H    0.000000  -0.000575   0.001652  -0.066714   0.423711  -0.043160
    39  H    0.000000   0.000107  -0.001108  -0.008135  -0.052742   0.408539
    40  H    0.000000  -0.000251   0.000897   0.028734  -0.073244   0.390812
    41  H   -0.000000  -0.000062  -0.000502  -0.012992  -0.046832   0.406282
              37         38         39         40         41
     1  C   -0.000003   0.000011   0.000000   0.000000  -0.000000
     2  C    0.000009   0.000055   0.000007   0.000001   0.000002
     3  C   -0.000022  -0.000035  -0.000009  -0.000002  -0.000010
     4  N   -0.000007  -0.000031   0.000002  -0.000001  -0.000004
     5  C    0.000077  -0.000138  -0.000139   0.000011   0.000026
     6  O   -0.000000  -0.000000   0.000000   0.000000  -0.000000
     7  N    0.000073   0.000050   0.000001  -0.000001   0.000057
     8  C   -0.000647   0.000087   0.001148   0.000082  -0.002422
     9  C   -0.000044  -0.000006   0.000101   0.000004  -0.000187
    10  C    0.000579  -0.000030  -0.000411  -0.000078   0.001271
    11  C    0.000106  -0.000062  -0.001278  -0.000015   0.001406
    12  C   -0.000001   0.000001  -0.000004   0.000000   0.000034
    13  C    0.000002  -0.000002  -0.000017   0.000000   0.000019
    14  H   -0.000000  -0.000000   0.000000   0.000000   0.000000
    15  H    0.000000   0.000000   0.000000  -0.000000  -0.000000
    16  H    0.000000  -0.000000  -0.000000  -0.000000   0.000000
    17  H   -0.000000  -0.000000  -0.000000  -0.000000   0.000000
    18  H    0.000000  -0.000000  -0.000000  -0.000000  -0.000000
    19  H    0.000000  -0.000000  -0.000000  -0.000000   0.000000
    20  H   -0.000000  -0.000000   0.000000  -0.000000  -0.000000
    21  H   -0.000002  -0.000000   0.000000   0.000000   0.000000
    22  H   -0.000006  -0.000005  -0.000001   0.000000  -0.000000
    23  H    0.000000  -0.000000  -0.000000  -0.000000   0.000000
    24  H   -0.000000   0.000000   0.000001   0.000000   0.000000
    25  H   -0.000000   0.000000   0.000000  -0.000000  -0.000000
    26  S    0.000000  -0.000000  -0.000001   0.000000   0.000001
    27  C   -0.000000   0.000000   0.000000  -0.000000  -0.000000
    28  F   -0.000000   0.000000   0.000000  -0.000000  -0.000000
    29  F   -0.000000   0.000000   0.000000  -0.000000  -0.000000
    30  F    0.000000  -0.000000  -0.000000   0.000000   0.000000
    31  H   -0.000000   0.000000   0.000000   0.000000  -0.000000
    32  O   -0.001504  -0.000575   0.000107  -0.000251  -0.000062
    33  O    0.002674   0.001652  -0.001108   0.000897  -0.000502
[...]
 0000019,-0.00000026,-0.00000075,0.00000035,-0.00000096,-0.00000042,-0.
 00000033,-0.00000019,-0.00000036,-0.00000022,-0.00000022,-0.00000016,0
 .00000029,0.00069640,-0.00041634,0.00033553,0.00063717,0.00056316,-0.0
 0134931,0.00283023,0.00447956,0.00455409,-0.11016149,-0.07860721,-0.18
 726771,0.00091530,0.00100739,0.00069293,0.12089186,0.08414510,0.201512
 06,0.00000008,0.00000054,-0.00000035,-0.00000119,-0.00000317,0.0000007
 5,0.00000981,-0.00000155,0.00000370,0.00002835,0.00004754,0.00000173,-
 0.00008258,-0.00000556,0.00001175,0.00002004,0.00000023,-0.00000504,0.
 00000066,-0.00011247,0.00001084,0.00002603,-0.00000870,0.00000165,-0.0
 0000827,-0.00000303,-0.00000091,-0.00000278,0.00000760,-0.00000200,0.0
 0000088,0.00000067,-0.00000012,-0.00000202,-0.00000107,-0.00000029,0.0
 0000104,-0.00000245,0.00000027,-0.00000024,0.00000053,0.00000003,-0.00
 000031,0.00000019,-0.00000006,-0.00000008,-0.00000008,-0.00000018,0.,0
 .00000149,0.00000028,0.00000080,0.00000176,-0.00000099,-0.00000164,0.0
 0000150,0.00000063,-0.00000061,0.00000104,-0.00000111,-0.00001359,-0.0
 0012492,-0.00000937,0.00000727,0.00015456,-0.00002255,0.00000005,-0.00
 000021,0.00000043,0.00000153,0.00000154,0.00000310,-0.00000016,0.00000
 007,0.00000045,0.00000050,0.00000005,-0.00000051,-0.00000062,0.0000001
 7,0.00000386,0.00000019,0.00000056,-0.00000122,-0.00000045,-0.00000015
 ,-0.00000094,0.00000055,-0.00000067,-0.00000140,-0.00000076,-0.0000003
 0,0.00000035,-0.00024619,0.00205355,-0.00104221,0.00048648,-0.00172422
 ,-0.00027493,-0.00342429,-0.00187943,0.00222361,-0.10783634,-0.0199725
 4,0.11294014,-0.01472220,-0.00441818,0.02555803,0.00892907,0.00389384,
 -0.01567772,0.11934315,0.00000039,0.00000181,0.00000271,0.00000524,-0.
 00000862,-0.00000932,-0.00002606,0.00001383,0.00000410,0.00002649,-0.0
 0004965,0.00004730,-0.00014736,0.00007370,0.00003334,0.00004260,-0.000
 11276,-0.00002011,-0.00002930,-0.00045606,0.00009823,0.00015378,-0.000
 01232,-0.00000582,-0.00004484,-0.00002045,-0.00000299,-0.00003121,0.00
 003113,0.00000244,0.00001019,0.00000170,0.00000041,-0.00001770,-0.0000
 0575,0.00000255,0.00000965,-0.00000950,0.00000040,0.00000221,-0.000000
 34,0.00000001,0.00000053,-0.00000058,0.00000005,0.00000053,-0.00000067
 ,-0.00000032,-0.00000143,0.00000261,0.00000026,0.00000423,-0.00000308,
 0.00000291,0.00000477,-0.00000403,-0.00000167,0.00000837,-0.00000508,0
 .00000075,-0.00002810,0.00014007,-0.00008605,0.00004778,0.00075524,-0.
 00018803,0.00000109,0.00000133,0.00000030,0.00001590,-0.00000312,0.000
 00559,-0.00000337,-0.00000017,0.00000081,0.00000518,0.00000088,-0.0000
 0352,0.00000037,-0.00000072,0.00001165,-0.00000012,0.00000210,-0.00000
 365,-0.00000444,-0.00000093,-0.00000409,0.00000056,-0.00000140,-0.0000
 0352,-0.00000382,-0.00000158,0.00000124,0.00041886,-0.00017342,-0.0035
 2656,-0.00222036,-0.00699880,-0.00306184,-0.01489366,-0.00278719,0.032
 54335,-0.02037295,-0.05345425,0.04243544,0.00788332,0.00196041,-0.0140
 6783,0.00697405,0.00252202,-0.01196590,0.02023961,0.05859728,0.0000014
 5,0.00000028,-0.00000032,-0.00000376,0.00000406,-0.00000144,0.00001504
 ,-0.00000472,-0.00000353,-0.00000395,0.00004886,-0.00000570,0.00003505
 ,-0.00002592,-0.00000596,-0.00000998,0.00004095,0.00000181,0.00001707,
 0.00011251,-0.00000622,-0.00004662,0.00000565,0.00000573,0.00001381,0.
 00000744,-0.00000120,0.00000965,-0.00001066,-0.00000436,-0.00000342,-0
 .00000003,0.00000008,0.00000587,0.00000172,0.00000015,-0.00000299,0.00
 000321,-0.00000068,-0.00000246,-0.00000057,0.00000011,-0.00000017,-0.0
 0000010,0.,-0.00000040,0.00000056,0.00000062,0.,-0.00000050,-0.0000001
 0,-0.00000131,0.00000174,0.00000105,-0.00000318,0.00000229,0.00000113,
 -0.00000429,0.00000213,0.00000003,0.00000238,-0.00005876,0.00001481,-0
 .00001865,-0.00019708,0.00000231,-0.00000020,-0.00000030,-0.00000027,-
 0.00000526,0.00000241,-0.00000052,0.00000070,-0.00000023,-0.00000006,-
 0.00000190,-0.00000023,0.00000134,-0.00000080,-0.00000116,-0.00000480,
 0.00000027,-0.00000006,0.00000111,0.00000221,0.00000072,0.00000173,-0.
 00000018,0.00000106,0.00000167,0.00000141,0.00000063,-0.00000018,-0.00
 081524,0.00039216,0.00144319,-0.00018040,0.00127982,-0.00020549,0.0022
 9103,-0.00213816,-0.00369227,0.11207781,0.04005412,-0.24443790,-0.0018
 0345,-0.00092463,0.00272588,0.01127363,0.00462911,-0.02057167,-0.12287
 456,-0.04283661,0.26247741,0.00000052,-0.00000036,-0.00000039,-0.00000
 085,0.00000086,0.00000154,0.00000817,-0.00000070,-0.00000029,0.0000060
 4,0.00004485,-0.00000287,-0.00001638,-0.00000836,0.00000478,0.00000329
 ,0.00001639,-0.00000238,0.00000585,0.00002558,-0.00000412,-0.00001105,
 -0.00000168,-0.00000403,0.00000333,0.00000211,0.00000132,0.00000221,-0
 .00000368,0.00000121,-0.00000106,0.00000053,-0.00000174,0.00000201,0.0
 0000040,0.00000016,-0.00000069,0.00000026,-0.00000060,-0.00000028,0.00
 000004,0.00000022,-0.00000052,0.00000072,-0.00000042,-0.00000012,0.000
 00013,0.00000017,-0.00000052,-0.00000065,0.00000093,-0.00000004,-0.000
 00043,-0.00000212,-0.00000184,0.00000162,0.00000042,-0.00000153,0.0000
 0210,-0.00000073,0.00000084,-0.00006432,-0.00000160,0.00000186,-0.0000
 4325,0.00000592,-0.00000015,-0.00000014,0.00000054,-0.00000042,0.00000
 814,0.00000287,0.00000049,-0.00000069,0.00000033,-0.00000043,0.0000001
 5,0.00000031,-0.00000010,-0.00000072,0.00000070,0.00000013,0.00000079,
 -0.00000046,0.00000040,0.00000021,0.00000006,0.00000015,0.00000006,-0.
 00000022,0.00000029,0.00000028,0.00000006,0.00005657,0.00053617,-0.000
 35286,0.00098162,0.00027704,-0.00037484,-0.00000081,-0.00205430,0.0004
 5042,-0.01498192,-0.00432589,0.02687830,-0.11024383,-0.01873162,0.1125
 9324,0.00126052,-0.00078776,-0.00021367,-0.00507632,0.00338774,-0.0006
 1609,0.12046988,-0.00000005,-0.00000020,0.00000025,-0.00000008,0.00000
 035,0.00000016,0.00000253,-0.00000225,-0.00000130,-0.00000249,0.000000
 17,0.00000061,0.00001710,-0.00000740,-0.00000711,-0.00000419,0.0000097
 0,0.00000257,-0.00000002,0.00003180,-0.00000433,-0.00000564,0.00000373
 ,0.00000712,0.00000272,0.00000132,0.00000065,-0.00000096,-0.00000697,-
 0.00000426,-0.00000166,0.00000024,-0.00000014,0.00000060,0.00000116,0.
 00000064,-0.00000001,0.00000146,-0.00000102,-0.00000025,0.00000002,0.,
 0.00000010,-0.00000010,0.00000004,-0.00000011,0.00000010,0.00000001,0.
 00000014,0.00000014,-0.00000026,-0.00000034,0.00000002,0.00000030,-0.0
 0000074,0.00000032,0.00000029,-0.00000046,0.00000013,0.00000002,-0.000
 00191,-0.00000539,0.00000243,-0.00000813,-0.00005368,0.00000497,0.0000
 0003,0.00000016,-0.00000047,-0.00000063,0.00000553,-0.00000290,-0.0000
 0080,-0.00000031,-0.00000003,-0.00000048,0.00000021,0.00000093,-0.0000
 0097,-0.00000115,-0.00000317,0.00000022,0.00000021,0.00000067,0.000001
 41,0.00000043,0.00000099,-0.00000005,0.00000076,0.00000107,0.00000039,
 0.00000041,-0.00000019,-0.00000476,0.00006703,0.00024364,0.00040388,-0
 .00015270,-0.00020710,-0.00042646,0.00014749,-0.00072703,0.00711030,0.
 00175258,-0.01369761,-0.01966079,-0.05293451,0.03406066,-0.00073716,0.
 00041136,0.00025782,0.00285860,-0.00091303,0.00013296,0.01867391,0.053
 28442,-0.00000090,0.00000001,0.00000028,0.00000035,0.00000061,-0.00000
 121,-0.00000338,-0.00000021,-0.00000010,-0.00001095,-0.00002834,0.0000
 0516,0.00002289,-0.00000036,-0.00000288,-0.00000549,-0.00000398,0.0000
 0187,-0.00000619,0.00000508,-0.00000129,0.00000809,0.00000413,0.000008
 57,-0.00000162,-0.00000055,-0.00000294,-0.00000379,-0.00000035,-0.0000
 0680,0.00000331,-0.00000235,0.00000361,-0.00000295,0.00000006,-0.00000
 049,0.00000140,0.00000198,0.00000097,0.00000014,0.00000019,-0.00000009
 ,0.00000040,-0.00000050,0.00000045,0.00000013,-0.00000009,-0.00000017,
 0.00000040,0.00000025,-0.00000015,0.00000029,-0.00000012,0.00000116,0.
 00000042,-0.00000039,-0.00000029,0.00000052,-0.00000106,0.00000055,0.0
 0000645,0.00003574,-0.00000350,-0.00000731,-0.00000989,-0.00000856,0.0
 0000041,0.00000052,-0.00000051,0.00000025,-0.00001203,-0.00000256,-0.0
 0000250,0.00000040,-0.00000004,0.00000030,-0.00000006,0.00000026,-0.00
 000039,-0.00000256,-0.00000340,0.00000005,0.00000072,0.00000053,0.0000
 0080,0.00000063,0.00000082,-0.00000057,0.00000132,0.00000168,0.,0.0000
 0013,-0.00000015,-0.00014688,-0.00051514,-0.00001320,-0.00106469,0.000
 43216,0.00035861,0.00113090,0.00107626,0.00000211,-0.00152969,-0.00084
 062,0.00234582,0.11386285,0.03237702,-0.25388420,0.00040751,-0.0003412
 3,0.00069673,-0.00031756,0.00035993,0.00147112,-0.12454672,-0.03735035
 ,0.27161218,0.00000212,-0.00000039,-0.00000017,-0.00000744,0.00000222,
 0.00000021,0.00004280,-0.00000687,-0.00000414,0.00006255,0.00022874,-0
 .00000695,-0.00009767,-0.00003928,0.00001057,0.00002375,0.00007556,-0.
 00000441,0.00004121,0.00006746,-0.00000630,-0.00004874,-0.00000918,0.0
 0000286,0.00001341,0.00000777,-0.00000087,0.00001323,-0.00000514,-0.00
 000073,-0.00000350,-0.00000020,0.00000040,0.00000712,0.00000141,-0.000
 00149,-0.00000418,0.00000123,0.00000025,-0.00000216,0.00000038,0.00000
 021,-0.00000125,0.00000135,-0.00000052,-0.00000118,0.00000149,0.000000
 75,-0.00000038,-0.00000102,0.00000575,-0.00000168,-0.00000154,-0.00000
 531,-0.00000808,0.00000777,0.00000260,-0.00000802,0.00000732,-0.000001
 27,-0.00003952,-0.00034904,0.00000584,-0.00001138,-0.00013085,0.000008
 57,-0.00000070,-0.00000127,0.00000009,-0.00000602,0.00000440,-0.000000
 64,0.00000168,0.00000002,-0.00000028,-0.00000189,-0.00000050,0.0000009
 9,0.00000054,0.00000109,-0.00000313,-0.00000012,-0.00000101,0.00000120
 ,0.00000093,0.00000009,0.00000108,-0.00000020,0.00000015,0.00000086,0.
 00000088,0.00000037,-0.00000011,-0.00155976,0.00381761,-0.00046888,0.0
 0142199,0.00013758,-0.00008260,-0.00571780,-0.00256478,0.00068402,0.00
 365768,0.03263913,-0.00495393,-0.05043190,-0.02998753,0.00437682,0.001
 31457,-0.00080711,-0.00017683,0.00131042,-0.00076380,0.00028458,-0.002
 09010,-0.01509707,0.00068688,0.05422796,-0.00000215,0.00000111,0.00000
 019,0.00000506,-0.00000328,-0.00000010,-0.00003539,0.00000850,0.000003
 40,-0.00003383,-0.00015267,0.00000448,0.00003460,0.00005254,-0.0000054
 0,-0.00000612,-0.00007822,0.00000214,-0.00004292,-0.00012079,0.0000142
 3,0.00005851,-0.00000007,-0.00001218,-0.00001655,-0.00000898,0.0000042
 9,-0.00001437,0.00000894,0.00000574,0.00000431,0.00000091,-0.00000128,
 -0.00000770,-0.00000316,0.00000285,0.00000385,-0.00000396,-0.00000110,
 0.00000254,0.00000023,-0.00000024,0.00000122,-0.00000128,0.00000075,0.
 00000104,-0.00000139,-0.00000097,-0.00000013,0.00000089,-0.00000382,0.
 00000078,0.00000107,0.00000360,0.00000685,-0.00000642,-0.00000240,0.00
 000723,-0.00000622,0.00000128,0.00001463,0.00027242,-0.00000553,0.0000
 3976,0.00024193,-0.00001911,0.00000032,0.00000062,0.00000006,0.0000062
 2,0.00000163,-0.00000078,-0.00000121,0.00000058,-0.00000010,0.00000287
 ,0.00000050,-0.00000217,0.00000196,0.00000095,0.00000540,-0.00000059,0
 .00000003,-0.00000125,-0.00000341,-0.00000094,-0.00000227,-0.00000022,
 -0.00000092,-0.00000169,-0.00000154,-0.00000083,0.00000020,0.00141372,
 -0.00235082,0.00027671,0.00031382,-0.00113112,0.00018258,0.00153779,0.
 00302845,-0.00040111,-0.00313396,-0.01281880,0.00183914,-0.02821357,-0
 .31192432,0.03941699,-0.00005483,0.00060176,0.00028197,-0.00015792,0.0
 0044320,-0.00040947,-0.00059287,-0.00289124,0.00056534,0.02993963,0.33
 738856,0.00000014,-0.00000008,-0.00000030,-0.00000038,0.00000021,0.000
 00107,0.00000289,-0.00000113,0.00000005,0.00000254,0.00001045,0.000001
 57,-0.00000034,-0.00000514,-0.00000131,-0.00000018,0.00000714,-0.00000
 023,0.00000499,0.00001212,0.00000992,-0.00000608,0.00000058,-0.0000024
 1,0.00000161,0.00000100,0.00000087,0.00000143,-0.00000121,-0.00000047,
 -0.00000025,-0.00000009,0.00000166,0.00000069,0.00000033,-0.00000086,-
 0.00000023,0.00000049,0.00000035,-0.00000022,-0.00000005,0.00000007,-0
 .00000010,0.00000015,-0.00000009,-0.00000012,0.00000010,0.00000008,0.0
 0000010,-0.00000017,0.00000034,-0.00000013,-0.00000012,-0.00000050,-0.
 00000062,0.00000075,0.00000011,-0.00000047,0.00000048,-0.00000012,-0.0
 0000118,-0.00002297,0.00000051,-0.00000563,-0.00002713,-0.00000355,-0.
 00000004,0.,-0.00000011,-0.00000076,-0.00000091,-0.00000286,0.,-0.0000
 0006,-0.00000020,-0.00000024,-0.00000009,0.00000024,0.,0.00000012,-0.0
 0000102,0.,-0.00000019,0.00000032,0.00000028,0.00000005,0.00000029,-0.
 00000006,0.00000010,0.00000032,0.00000014,0.00000010,-0.00000014,-0.00
 011756,0.00016274,0.00005467,-0.00006569,0.00018259,0.00018999,0.00007
 006,-0.00019349,0.00083880,0.00020293,0.00011485,-0.00118916,0.0040872
 4,0.03957686,-0.05497634,0.00021813,0.00018739,-0.00000686,-0.00029660
 ,-0.00024778,0.00016190,0.00207804,0.02827479,-0.00294941,-0.00467052,
 -0.04355598,0.05315945,0.00000073,-0.00000039,0.00000025,-0.00000102,0
 .00000072,-0.00000152,0.00000893,-0.00000132,-0.00000153,0.00000881,0.
 00005014,0.00000050,-0.00001971,-0.00000942,-0.00000280,0.00000463,0.0
 0001808,0.00000077,0.00000631,0.00002416,-0.00000042,-0.00001009,-0.00
 000197,-0.00000570,0.00000345,0.00000236,0.00000414,0.00000300,-0.0000
 0339,0.00000515,-0.00000150,0.00000087,-0.00000170,0.00000200,0.000000
 43,0.00000113,-0.00000101,0.00000009,-0.00000193,-0.00000036,-0.000000
 01,-0.00000015,-0.00000017,0.00000016,-0.00000015,-0.00000048,0.000000
 84,0.00000055,0.00000036,-0.00000034,0.00000203,-0.00000103,-0.0000004
 5,-0.00000073,-0.00000172,0.00000244,0.00000086,-0.00000189,0.00000156
 ,-0.00000013,-0.00000160,-0.00007424,0.00000437,0.00000180,-0.00003922
 ,-0.00000091,-0.00000024,-0.00000005,-0.00000048,-0.00000133,0.0000073
 9,-0.00000321,0.00000053,-0.00000075,-0.00000004,-0.00000027,0.0000001
 7,0.00000042,0.00000086,-0.00000027,-0.00000258,-0.00000012,-0.0000000
 6,0.00000078,0.00000010,0.00000009,0.00000056,-0.00000046,0.00000049,0
 .00000094,0.00000031,0.00000029,-0.00000013,0.00010452,0.00064035,0.00
 016162,0.00113518,0.00031096,0.00025316,-0.00012591,-0.00215817,0.0001
 8135,-0.01733663,-0.01144085,-0.02299363,-0.13179383,-0.05679516,-0.11
 198842,-0.00499897,0.00347957,0.00025499,0.00125375,-0.00065493,0.0003
 6731,0.00962478,0.00688428,0.01151684,-0.00209918,-0.00107742,-0.00150
 379,0.14423751,0.00000013,-0.00000039,-0.00000022,-0.00000020,0.000000
 44,-0.00000040,0.00000387,-0.00000249,0.00000021,-0.00000161,0.0000055
 5,0.00000003,0.00001640,-0.00001129,0.00000376,-0.00000474,0.00001308,
 -0.00000188,0.00000255,0.00003666,-0.00000076,-0.00001086,0.00000197,-
 0.00000755,0.00000268,0.00000110,0.00000128,0.00000155,-0.00000735,0.0
 0000212,-0.00000345,0.00000115,0.00000089,0.00000129,0.00000147,-0.000
 00183,0.00000072,0.00000148,-0.00000025,-0.00000038,-0.00000006,0.0000
 0008,-0.00000023,0.00000019,-0.00000012,0.00000007,0.,0.00000011,-0.00
 000032,0.00000013,0.,0.00000047,-0.00000002,0.00000019,-0.00000096,0.0
 0000044,0.00000027,-0.00000067,0.00000061,-0.00000040,-0.00000203,-0.0
 0001463,-0.00000255,-0.00000786,-0.00005997,0.00000074,0.00000023,0.00
 000004,0.00000046,0.00000052,0.00000867,0.00000288,-0.00000012,-0.0000
 0046,0.00000055,-0.00000086,0.00000031,0.00000085,-0.00000265,-0.00000
 200,-0.00000085,0.00000081,0.00000111,-0.00000046,0.00000227,0.0000007
 6,0.00000088,0.00000063,0.00000051,0.00000037,0.00000045,0.00000032,-0
 .00000011,-0.00003010,0.00014390,-0.00027975,0.00060631,-0.00017937,0.
 00026695,-0.00056746,0.00007357,0.00077967,0.00873328,0.00582188,0.012
 27472,-0.05810638,-0.08572187,-0.07678650,0.00292149,-0.00094823,0.000
 28148,-0.00084903,0.00047619,-0.00011521,0.00363735,0.00124767,0.00424
 772,-0.01717618,-0.01054939,-0.02447681,0.06083297,0.08965830,0.000000
 79,0.00000010,0.00000021,-0.00000043,-0.00000063,-0.00000133,0.0000014
 8,0.00000065,-0.00000080,0.00001149,0.00002185,0.00000068,-0.00002538,
 0.00000402,0.00000040,0.00000649,-0.00000092,0.00000058,0.00000471,-0.
 00001747,-0.00000114,-0.00000334,-0.00000440,-0.00000689,0.00000057,0.
 00000053,0.00000388,0.00000288,0.00000272,0.00000595,-0.00000193,0.000
 00170,0.00000054,0.00000211,-0.00000066,0.00000047,-0.00000138,-0.0000
 0245,-0.00000098,-0.00000003,-0.00000018,-0.00000003,-0.00000014,0.000
 00007,-0.00000014,-0.00000025,0.00000041,0.00000044,-0.00000003,0.0000
 0015,0.00000094,-0.00000037,-0.00000024,0.,-0.00000019,0.00000074,0.00
 000047,0.00000009,0.00000019,-0.00000013,-0.00000736,-0.00002767,-0.00
 000107,0.00000879,0.00003196,-0.00000844,-0.00000046,-0.00000047,-0.00
 000048,-0.00000091,0.00000752,-0.00000653,0.00000214,-0.00000005,-0.00
 000119,0.00000017,-0.00000028,-0.00000058,0.00000185,0.00000492,-0.000
 00026,-0.00000039,-0.00000243,0.00000127,-0.00000180,-0.00000117,-0.00
 000045,0.,-0.00000136,-0.00000060,-0.00000018,-0.00000028,0.00000002,0
 .00014093,0.00041151,-0.00011106,0.00091470,-0.00032910,0.00024965,-0.
 00098873,-0.00087226,0.00018846,0.00086900,0.00093641,0.00056394,-0.11
 297889,-0.07528447,-0.19940355,0.00010361,0.00000044,0.00143203,-0.000
 23098,0.00048185,0.00062946,-0.01589542,-0.01098632,-0.01963055,0.0043
 1455,0.00181563,0.00471338,0.12375224,0.08380943,0.21138343\\0.0000053
 1,-0.00000048,-0.00000089,-0.00000389,0.00000958,-0.00000080,-0.000005
 41,-0.00000312,0.00000368,0.00000618,0.00001588,-0.00001352,-0.0000080
 7,-0.00002443,0.00001621,0.00000391,0.00001370,-0.00000192,0.00000323,
 0.00000215,-0.00001853,0.00000149,0.00000392,0.00001063,-0.00000158,0.
 00000145,0.00000298,0.00001010,-0.00000598,-0.00000363,-0.00000557,-0.
 00000688,0.00000115,0.00000594,0.00000631,0.00000228,0.00000552,-0.000
 00486,-0.00000036,-0.00000124,0.00000256,-0.00000121,0.00000082,0.0000
 0498,-0.00000187,0.00000051,0.00000384,0.00000102,0.00000040,0.0000006
 7,-0.00000194,0.00000002,-0.00000017,-0.00000017,0.00000230,0.00000266
 ,0.00000161,0.00000253,0.00000374,-0.00000156,0.00000535,-0.00000718,0
 .00000401,-0.00000204,0.00000541,-0.00000193,-0.00000007,-0.00000164,0
 .00000214,-0.00000244,-0.00000054,0.00000026,0.00000064,-0.00000137,0.
 00000181,-0.00000214,-0.00000442,0.00000293,-0.00000345,0.00000365,0.0
 0000342,-0.00000237,-0.00001240,0.00000392,0.00000856,-0.00000276,0.00
 000105,0.00000029,-0.00000481,0.00000226,0.00000229,-0.00000113,0.0000
 0397,-0.00001490,-0.00000154,0.00000470,-0.00000660,-0.00000587,0.0000
 1420,0.00001192,0.00001967,-0.00001266,0.00000877,-0.00001479,-0.00000
 702,-0.00001078,0.00000368,-0.00000300,-0.00000567,0.00000123,-0.00000
 390,-0.00000477,0.00000097,-0.00000083,-0.00000109,0.00000061,-0.00000
 420,-0.00000296,-0.00000199,-0.00000325,-0.00000105,-0.00000033,-0.000
 00104\\\@


 SATCHEL PAIGE'S GUIDE TO LONGEVITY

    1.  AVOID FRIED MEATS, WHICH ANGRY UP THE BLOOD.

    2.  IF YOUR STOMACH DISPUTES YOU, LIE DOWN AND PACIFY IT WITH COOL
        THOUGHTS.

    3.  KEEP THE JUICES FLOWING BY JANGLING AROUND GENTLY AS YOU MOVE.

    4.  GO VERY LIGHT ON THE VICES, SUCH AS CARRYING ON IN SOCIETY.
        THE SOCIAL RUMBLE AIN'T RESTFUL.

    5.  AVOID RUNNING AT ALL TIMES.

    6.  DON'T LOOK BACK.  SOMETHING MAY BE GAINING ON YOU.
 Job cpu time:       0 days  8 hours 22 minutes 12.7 seconds.
 File lengths (MBytes):  RWF=   1185 Int=      0 D2E=      0 Chk=     29 Scr=      1
 Normal termination of Gaussian 09 at Tue Feb 19 12:32:14 2019.
WARNING: pbs_rusage is deprecated and values produced may not be accurate


=============================================================================
                                     Resource usage:
                                       CPU time:              20:50:14
   JobId:    5875483.r-man2            Elapsed time:          02:38:22
   Project:             q95            Requested time:        46:00:00
   Service Units:     21.12 
                                       Max physical memory:     1571MB
                                       Max virtual memory:      3291MB
                                       Requested memory:           0MB

                                       Number of cpus:               8

                                       Max jobfs disk use:       1.2GB
                                       Requested jobfs:         20.0GB
=============================================================================

