 Entering Gaussian System, Link 0=/apps/gaussian/g09e01/g09/g09
 AtFile(1): /home/507/hio507/Basis/6-31pGd.gbs
 Initial command:
 /apps/gaussian/g09e01/g09/l1.exe "/jobfs/local/1828100.r-man2/Gau-43098.inp" -scrdir="/jobfs/local/1828100.r-man2/"
 Entering Link 1 = /apps/gaussian/g09e01/g09/l1.exe PID=     43099.
  
 Copyright (c) 1988,1990,1992,1993,1995,1998,2003,2009,2015,
            Gaussian, Inc.  All Rights Reserved.
  
 This is part of the Gaussian(R) 09 program.  It is based on
 the Gaussian(R) 03 system (copyright 2003, Gaussian, Inc.),
 the Gaussian(R) 98 system (copyright 1998, Gaussian, Inc.),
 the Gaussian(R) 94 system (copyright 1995, Gaussian, Inc.),
 the Gaussian 92(TM) system (copyright 1992, Gaussian, Inc.),
 the Gaussian 90(TM) system (copyright 1990, Gaussian, Inc.),
 the Gaussian 88(TM) system (copyright 1988, Gaussian, Inc.),
 the Gaussian 86(TM) system (copyright 1986, Carnegie Mellon
 University), and the Gaussian 82(TM) system (copyright 1983,
 Carnegie Mellon University). Gaussian is a federally registered
 trademark of Gaussian, Inc.
  
 This software contains proprietary and confidential information,
 including trade secrets, belonging to Gaussian, Inc.
  
 This software is provided under written license and may be
 used, copied, transmitted, or stored only in accord with that
 written license.
  
 The following legend is applicable only to US Government
 contracts under FAR:
  
                    RESTRICTED RIGHTS LEGEND
  
 Use, reproduction and disclosure by the US Government is
 subject to restrictions as set forth in subparagraphs (a)
 and (c) of the Commercial Computer Software - Restricted
 Rights clause in FAR 52.227-19.
  
 Gaussian, Inc.
 340 Quinnipiac St., Bldg. 40, Wallingford CT 06492
  
  
 ---------------------------------------------------------------
 Warning -- This program may not be used in any manner that
 competes with the business of Gaussian, Inc. or will provide
 assistance to any competitor of Gaussian, Inc.  The licensee
 of this program is prohibited from giving any competitor of
 Gaussian, Inc. access to this program.  By using this program,
 the user acknowledges that Gaussian, Inc. is engaged in the
 business of creating and licensing software in the field of
 computational chemistry and represents and warrants to the
 licensee that it is not a competitor of Gaussian, Inc. and that
 it will not use this program in any manner prohibited above.
 ---------------------------------------------------------------
  

 Cite this work as:
 Gaussian 09, Revision E.01,
 M. J. Frisch, G. W. Trucks, H. B. Schlegel, G. E. Scuseria, 
 M. A. Robb, J. R. Cheeseman, G. Scalmani, V. Barone, B. Mennucci, 
 G. A. Petersson, H. Nakatsuji, M. Caricato, X. Li, H. P. Hratchian, 
 A. F. Izmaylov, J. Bloino, G. Zheng, J. L. Sonnenberg, M. Hada, 
 M. Ehara, K. Toyota, R. Fukuda, J. Hasegawa, M. Ishida, T. Nakajima, 
 Y. Honda, O. Kitao, H. Nakai, T. Vreven, J. A. Montgomery, Jr., 
 J. E. Peralta, F. Ogliaro, M. Bearpark, J. J. Heyd, E. Brothers, 
 K. N. Kudin, V. N. Staroverov, T. Keith, R. Kobayashi, J. Normand, 
 K. Raghavachari, A. Rendell, J. C. Burant, S. S. Iyengar, J. Tomasi, 
 M. Cossi, N. Rega, J. M. Millam, M. Klene, J. E. Knox, J. B. Cross, 
 V. Bakken, C. Adamo, J. Jaramillo, R. Gomperts, R. E. Stratmann, 
 O. Yazyev, A. J. Austin, R. Cammi, C. Pomelli, J. W. Ochterski, 
 R. L. Martin, K. Morokuma, V. G. Zakrzewski, G. A. Voth, 
 P. Salvador, J. J. Dannenberg, S. Dapprich, A. D. Daniels, 
 O. Farkas, J. B. Foresman, J. V. Ortiz, J. Cioslowski, 
 and D. J. Fox, Gaussian, Inc., Wallingford CT, 2013.
 
 ******************************************
 Gaussian 09:  ES64L-G09RevE.01 30-Nov-2015
                30-Oct-2018 
 ******************************************
 %chk=4SsulfCF3.M062X_6-31pGd_opt.chk
 %mem=196608000
 %nproc=4
 Will use up to    4 processors via shared memory.
 ----------------------------------------------------------------------
 # M062X/Gen 6D SCF=Tight INT(grid=ultrafine) OPT IOP(2/17=4) maxdisk=2
 147483648
 ----------------------------------------------------------------------
 1/14=-1,18=20,19=15,26=4,38=1/1,3;
 2/9=110,12=2,17=4,18=5,40=1/2;
 3/5=7,8=2,11=2,16=1,25=1,30=1,71=1,74=-55,75=-5/1,2,3;
 4//1;
 5/5=2,32=2,38=5/2;
 6/7=2,8=2,9=2,10=2,28=1/1;
 7//1,2,3,16;
 1/14=-1,18=20,19=15,26=4/3(2);
 2/9=110,17=4/2;
 99//99;
 2/9=110,17=4/2;
 3/5=7,6=1,8=2,11=2,16=1,25=1,30=1,71=1,74=-55,75=-5,82=7/1,2,3;
 4/5=5,16=3,69=1/1;
 5/5=2,32=2,38=5/2;
 7//1,2,3,16;
 1/14=-1,18=20,19=15,26=4/3(-5);
 2/9=110,17=4/2;
 6/7=2,8=2,9=2,10=2,19=2,28=1/1;
 99/9=1/99;
 ---------------------------
 4SsulfCF3.M062X_6-31pGd_opt
 ---------------------------
 Symbolic Z-matrix:
 Charge =  0 Multiplicity = 1
 C                    -1.723     1.89918   0.26303 
 C                    -0.36913   1.20428   0.15186 
 C                     0.77591   2.22228   0.09215 
 N                     2.0595    1.55388  -0.03436 
 C                     3.22974   2.24836  -0.11536 
 O                     3.20435   3.4683   -0.0718 
 N                     4.40792   1.56634  -0.25894 
 C                     5.73592   2.10876  -0.37511 
 C                     6.0541    3.48504  -0.26367 
 C                     6.79096   1.20683  -0.61906 
 C                     8.10762   1.65133  -0.75667 
 C                     8.40405   3.01045  -0.64479 
 C                     7.37644   3.92326  -0.39753 
 H                    -2.52982   1.13734   0.30443 
 H                    -1.89532   2.55084  -0.62011 
 H                    -1.76708   2.51549   1.18604 
 H                    -0.36043   0.58212  -0.76964 
 H                    -0.22898   0.54054   1.03277 
 H                     0.76965   2.83702   1.01925 
 H                     0.62497   2.88898  -0.78564 
 H                     2.08497   0.52253  -0.07229 
 H                     4.33561   0.53787  -0.30811 
 H                     5.32228   4.24832  -0.0725 
 H                     6.5919    0.14635  -0.71117 
 H                     8.89623   0.93568  -0.95093 
 S                     10.09459   3.58961  -0.83186 
 C                     10.62354   3.1368    0.85376 
 F                     10.7066   1.76217   0.97236 
 F                     11.87245   3.68041   1.08378 
 F                     9.74531   3.64571   1.79297 
 H                     7.60046   4.97925  -0.31062 
 

 GradGradGradGradGradGradGradGradGradGradGradGradGradGradGradGradGradGrad
 Berny optimization.
 Initialization pass.
                           ----------------------------
                           !    Initial Parameters    !
                           ! (Angstroms and Degrees)  !
 --------------------------                            --------------------------
 ! Name  Definition              Value          Derivative Info.                !
 --------------------------------------------------------------------------------
 ! R1    R(1,2)                  1.5258         estimate D2E/DX2                !
 ! R2    R(1,14)                 1.1104         estimate D2E/DX2                !
 ! R3    R(1,15)                 1.111          estimate D2E/DX2                !
 ! R4    R(1,16)                 1.1107         estimate D2E/DX2                !
 ! R5    R(2,3)                  1.5333         estimate D2E/DX2                !
 ! R6    R(2,17)                 1.1119         estimate D2E/DX2                !
 ! R7    R(2,18)                 1.1118         estimate D2E/DX2                !
 ! R8    R(3,4)                  1.4527         estimate D2E/DX2                !
 ! R9    R(3,19)                 1.1124         estimate D2E/DX2                !
 ! R10   R(3,20)                 1.1126         estimate D2E/DX2                !
 ! R11   R(4,5)                  1.3632         estimate D2E/DX2                !
 ! R12   R(4,21)                 1.0324         estimate D2E/DX2                !
 ! R13   R(5,6)                  1.221          estimate D2E/DX2                !
 ! R14   R(5,7)                  1.3689         estimate D2E/DX2                !
 ! R15   R(7,8)                  1.4392         estimate D2E/DX2                !
 ! R16   R(7,22)                 1.0322         estimate D2E/DX2                !
 ! R17   R(8,9)                  1.417          estimate D2E/DX2                !
 ! R18   R(8,10)                 1.4093         estimate D2E/DX2                !
 ! R19   R(9,13)                 1.3995         estimate D2E/DX2                !
 ! R20   R(9,23)                 1.0746         estimate D2E/DX2                !
 ! R21   R(10,11)                1.3965         estimate D2E/DX2                !
 ! R22   R(10,24)                1.0829         estimate D2E/DX2                !
 ! R23   R(11,12)                1.3956         estimate D2E/DX2                !
 ! R24   R(11,25)                1.0825         estimate D2E/DX2                !
 ! R25   R(12,13)                1.3965         estimate D2E/DX2                !
 ! R26   R(12,26)                1.7968         estimate D2E/DX2                !
 ! R27   R(13,31)                1.083          estimate D2E/DX2                !
 ! R28   R(26,27)                1.8238         estimate D2E/DX2                !
 ! R29   R(27,28)                1.3822         estimate D2E/DX2                !
 ! R30   R(27,29)                1.3814         estimate D2E/DX2                !
 ! R31   R(27,30)                1.3829         estimate D2E/DX2                !
 ! A1    A(2,1,14)             109.5696         estimate D2E/DX2                !
 ! A2    A(2,1,15)             110.2941         estimate D2E/DX2                !
 ! A3    A(2,1,16)             110.3928         estimate D2E/DX2                !
 ! A4    A(14,1,15)            108.6244         estimate D2E/DX2                !
 ! A5    A(14,1,16)            108.7151         estimate D2E/DX2                !
 ! A6    A(15,1,16)            109.205          estimate D2E/DX2                !
 ! A7    A(1,2,3)              111.2897         estimate D2E/DX2                !
 ! A8    A(1,2,17)             108.7932         estimate D2E/DX2                !
 ! A9    A(1,2,18)             109.0257         estimate D2E/DX2                !
 ! A10   A(3,2,17)             109.4742         estimate D2E/DX2                !
 ! A11   A(3,2,18)             109.4551         estimate D2E/DX2                !
 ! A12   A(17,2,18)            108.76           estimate D2E/DX2                !
 ! A13   A(2,3,4)              110.9626         estimate D2E/DX2                !
 ! A14   A(2,3,19)             109.2835         estimate D2E/DX2                !
 ! A15   A(2,3,20)             109.103          estimate D2E/DX2                !
 ! A16   A(4,3,19)             109.3789         estimate D2E/DX2                !
 ! A17   A(4,3,20)             109.0798         estimate D2E/DX2                !
 ! A18   A(19,3,20)            109.0037         estimate D2E/DX2                !
 ! A19   A(3,4,5)              121.9572         estimate D2E/DX2                !
 ! A20   A(3,4,21)             118.9898         estimate D2E/DX2                !
 ! A21   A(5,4,21)             119.0508         estimate D2E/DX2                !
 ! A22   A(4,5,6)              119.2776         estimate D2E/DX2                !
 ! A23   A(4,5,7)              119.4235         estimate D2E/DX2                !
 ! A24   A(6,5,7)              121.2948         estimate D2E/DX2                !
 ! A25   A(5,7,8)              127.9424         estimate D2E/DX2                !
 ! A26   A(5,7,22)             116.1764         estimate D2E/DX2                !
 ! A27   A(8,7,22)             115.8701         estimate D2E/DX2                !
 ! A28   A(7,8,9)              124.5356         estimate D2E/DX2                !
 ! A29   A(7,8,10)             117.6168         estimate D2E/DX2                !
 ! A30   A(9,8,10)             117.8475         estimate D2E/DX2                !
 ! A31   A(8,9,13)             120.5832         estimate D2E/DX2                !
 ! A32   A(8,9,23)             123.4342         estimate D2E/DX2                !
 ! A33   A(13,9,23)            115.9822         estimate D2E/DX2                !
 ! A34   A(8,10,11)            121.2784         estimate D2E/DX2                !
 ! A35   A(8,10,24)            120.2541         estimate D2E/DX2                !
 ! A36   A(11,10,24)           118.466          estimate D2E/DX2                !
 ! A37   A(10,11,12)           120.1564         estimate D2E/DX2                !
 ! A38   A(10,11,25)           119.6123         estimate D2E/DX2                !
 ! A39   A(12,11,25)           120.2313         estimate D2E/DX2                !
 ! A40   A(11,12,13)           119.6335         estimate D2E/DX2                !
 ! A41   A(11,12,26)           120.3595         estimate D2E/DX2                !
 ! A42   A(13,12,26)           120.0047         estimate D2E/DX2                !
 ! A43   A(9,13,12)            120.4995         estimate D2E/DX2                !
 ! A44   A(9,13,31)            119.5447         estimate D2E/DX2                !
 ! A45   A(12,13,31)           119.9556         estimate D2E/DX2                !
 ! A46   A(12,26,27)            95.5449         estimate D2E/DX2                !
 ! A47   A(26,27,28)           110.0993         estimate D2E/DX2                !
 ! A48   A(26,27,29)           108.5671         estimate D2E/DX2                !
 ! A49   A(26,27,30)           110.6194         estimate D2E/DX2                !
 ! A50   A(28,27,29)           108.8291         estimate D2E/DX2                !
 ! A51   A(28,27,30)           110.2347         estimate D2E/DX2                !
 ! A52   A(29,27,30)           108.4367         estimate D2E/DX2                !
 ! D1    D(14,1,2,3)          -179.9848         estimate D2E/DX2                !
 ! D2    D(14,1,2,17)           59.3145         estimate D2E/DX2                !
 ! D3    D(14,1,2,18)          -59.155          estimate D2E/DX2                !
 ! D4    D(15,1,2,3)            60.4885         estimate D2E/DX2                !
 ! D5    D(15,1,2,17)          -60.2123         estimate D2E/DX2                !
 ! D6    D(15,1,2,18)         -178.6817         estimate D2E/DX2                !
 ! D7    D(16,1,2,3)           -60.2849         estimate D2E/DX2                !
 ! D8    D(16,1,2,17)          179.0144         estimate D2E/DX2                !
 ! D9    D(16,1,2,18)           60.5449         estimate D2E/DX2                !
 ! D10   D(1,2,3,4)           -179.1194         estimate D2E/DX2                !
 ! D11   D(1,2,3,19)            60.1839         estimate D2E/DX2                !
 ! D12   D(1,2,3,20)           -58.9114         estimate D2E/DX2                !
 ! D13   D(17,2,3,4)           -58.8198         estimate D2E/DX2                !
 ! D14   D(17,2,3,19)         -179.5164         estimate D2E/DX2                !
 ! D15   D(17,2,3,20)           61.3882         estimate D2E/DX2                !
 ! D16   D(18,2,3,4)            60.3031         estimate D2E/DX2                !
 ! D17   D(18,2,3,19)          -60.3935         estimate D2E/DX2                !
 ! D18   D(18,2,3,20)         -179.4889         estimate D2E/DX2                !
 ! D19   D(2,3,4,5)            179.5762         estimate D2E/DX2                !
 ! D20   D(2,3,4,21)             0.1202         estimate D2E/DX2                !
 ! D21   D(19,3,4,5)           -59.7836         estimate D2E/DX2                !
 ! D22   D(19,3,4,21)          120.7604         estimate D2E/DX2                !
 ! D23   D(20,3,4,5)            59.3544         estimate D2E/DX2                !
 ! D24   D(20,3,4,21)         -120.1016         estimate D2E/DX2                !
 ! D25   D(3,4,5,6)              0.4972         estimate D2E/DX2                !
 ! D26   D(3,4,5,7)           -178.7719         estimate D2E/DX2                !
 ! D27   D(21,4,5,6)           179.9528         estimate D2E/DX2                !
 ! D28   D(21,4,5,7)             0.6838         estimate D2E/DX2                !
 ! D29   D(4,5,7,8)            179.3365         estimate D2E/DX2                !
 ! D30   D(4,5,7,22)             0.6098         estimate D2E/DX2                !
 ! D31   D(6,5,7,8)              0.0826         estimate D2E/DX2                !
 ! D32   D(6,5,7,22)          -178.6441         estimate D2E/DX2                !
 ! D33   D(5,7,8,9)              4.6838         estimate D2E/DX2                !
 ! D34   D(5,7,8,10)          -175.1935         estimate D2E/DX2                !
 ! D35   D(22,7,8,9)          -176.5862         estimate D2E/DX2                !
 ! D36   D(22,7,8,10)            3.5365         estimate D2E/DX2                !
 ! D37   D(7,8,9,13)          -179.6814         estimate D2E/DX2                !
 ! D38   D(7,8,9,23)             0.5322         estimate D2E/DX2                !
 ! D39   D(10,8,9,13)            0.1956         estimate D2E/DX2                !
 ! D40   D(10,8,9,23)         -179.5907         estimate D2E/DX2                !
 ! D41   D(7,8,10,11)          179.4412         estimate D2E/DX2                !
 ! D42   D(7,8,10,24)           -0.1141         estimate D2E/DX2                !
 ! D43   D(9,8,10,11)           -0.4445         estimate D2E/DX2                !
 ! D44   D(9,8,10,24)         -179.9998         estimate D2E/DX2                !
 ! D45   D(8,9,13,12)            0.0732         estimate D2E/DX2                !
 ! D46   D(8,9,13,31)          179.9171         estimate D2E/DX2                !
 ! D47   D(23,9,13,12)         179.8749         estimate D2E/DX2                !
 ! D48   D(23,9,13,31)          -0.2812         estimate D2E/DX2                !
 ! D49   D(8,10,11,12)           0.4245         estimate D2E/DX2                !
 ! D50   D(8,10,11,25)        -179.5499         estimate D2E/DX2                !
 ! D51   D(24,10,11,12)        179.9876         estimate D2E/DX2                !
 ! D52   D(24,10,11,25)          0.0132         estimate D2E/DX2                !
 ! D53   D(10,11,12,13)         -0.143          estimate D2E/DX2                !
 ! D54   D(10,11,12,26)       -179.5877         estimate D2E/DX2                !
 ! D55   D(25,11,12,13)        179.8313         estimate D2E/DX2                !
 ! D56   D(25,11,12,26)          0.3866         estimate D2E/DX2                !
 ! D57   D(11,12,13,9)          -0.1026         estimate D2E/DX2                !
 ! D58   D(11,12,13,31)       -179.9459         estimate D2E/DX2                !
 ! D59   D(26,12,13,9)         179.3441         estimate D2E/DX2                !
 ! D60   D(26,12,13,31)         -0.4992         estimate D2E/DX2                !
 ! D61   D(11,12,26,27)        -79.6068         estimate D2E/DX2                !
 ! D62   D(13,12,26,27)        100.9505         estimate D2E/DX2                !
 ! D63   D(12,26,27,28)         70.8799         estimate D2E/DX2                !
 ! D64   D(12,26,27,29)       -170.0773         estimate D2E/DX2                !
 ! D65   D(12,26,27,30)        -51.2061         estimate D2E/DX2                !
 --------------------------------------------------------------------------------
 Trust Radius=3.00D-01 FncErr=1.00D-07 GrdErr=1.00D-06
 Number of steps in this run=    158 maximum allowed number of steps=    186.
 GradGradGradGradGradGradGradGradGradGradGradGradGradGradGradGradGradGrad

                          Input orientation:                          
 ---------------------------------------------------------------------
 Center     Atomic      Atomic             Coordinates (Angstroms)
 Number     Number       Type             X           Y           Z
 ---------------------------------------------------------------------
      1          6           0       -1.723000    1.899180    0.263030
      2          6           0       -0.369130    1.204280    0.151860
      3          6           0        0.775910    2.222280    0.092150
      4          7           0        2.059500    1.553880   -0.034360
      5          6           0        3.229740    2.248360   -0.115360
      6          8           0        3.204350    3.468300   -0.071800
      7          7           0        4.407920    1.566340   -0.258940
      8          6           0        5.735920    2.108760   -0.375110
      9          6           0        6.054100    3.485040   -0.263670
     10          6           0        6.790960    1.206830   -0.619060
     11          6           0        8.107620    1.651330   -0.756670
     12          6           0        8.404050    3.010450   -0.644790
     13          6           0        7.376440    3.923260   -0.397530
     14          1           0       -2.529820    1.137340    0.304430
     15          1           0       -1.895320    2.550840   -0.620110
     16          1           0       -1.767080    2.515490    1.186040
     17          1           0       -0.360430    0.582120   -0.769640
     18          1           0       -0.228980    0.540540    1.032770
     19          1           0        0.769650    2.837020    1.019250
     20          1           0        0.624970    2.888980   -0.785640
     21          1           0        2.084970    0.522530   -0.072290
     22          1           0        4.335610    0.537870   -0.308110
     23          1           0        5.322280    4.248320   -0.072500
     24          1           0        6.591900    0.146350   -0.711170
     25          1           0        8.896230    0.935680   -0.950930
     26         16           0       10.094590    3.589610   -0.831860
     27          6           0       10.623540    3.136800    0.853760
     28          9           0       10.706600    1.762170    0.972360
     29          9           0       11.872450    3.680410    1.083780
     30          9           0        9.745310    3.645710    1.792970
     31          1           0        7.600460    4.979250   -0.310620
 ---------------------------------------------------------------------
                    Distance matrix (angstroms):
                    1          2          3          4          5
     1  C    0.000000
     2  C    1.525847   0.000000
     3  C    2.525499   1.533299   0.000000
     4  N    3.809853   2.460720   1.452710   0.000000
     5  C    4.979432   3.756777   2.462727   1.363204   0.000000
     6  O    5.181991   4.236221   2.734368   2.230939   1.220981
     7  N    6.162095   4.808331   3.707427   2.359167   1.368895
     8  C    7.489101   6.194144   4.983264   3.733640   2.523469
     9  C    7.954599   6.828793   5.438792   4.442836   3.086808
    10  C    8.587488   7.201473   6.141481   4.780066   3.744434
    11  C    9.886471   8.537012   7.402733   6.091879   4.955950
    12  C   10.228206   8.992530   7.704078   6.538160   5.256858
    13  C    9.345215   8.227304   6.833748   5.832298   4.481075
    14  H    1.110438   2.167104   3.485686   4.620621   5.880741
    15  H    1.110987   2.176791   2.784014   4.120392   5.158731
    16  H    1.110733   2.177858   2.783768   4.129986   5.170417
    17  H    2.158159   1.111900   2.173494   2.709431   4.011703
    18  H    2.161134   1.111843   2.173205   2.720802   4.024624
    19  H    2.768522   2.171411   1.112411   2.102440   2.772346
    20  H    2.755427   2.169183   1.112559   2.098759   2.764868
    21  H    4.063033   2.556880   2.151704   1.032361   2.071435
    22  H    6.235874   4.773914   3.958397   2.507567   2.045942
    23  H    7.434178   6.458225   4.980103   4.231689   2.894892
    24  H    8.553306   7.093657   6.227403   4.793940   4.009683
    25  H   10.731732   9.334623   8.287518   6.925543   5.876259
    26  S   11.987984  10.777149   9.463677   8.327237   7.031251
    27  C   12.422468  11.183295   9.919285   8.754266   7.509780
    28  F   12.450577  11.120083   9.980234   8.707997   7.571192
    29  F   13.736181  12.524216  11.235776  10.102789   8.842236
    30  F   11.700992  10.533552   9.239539   8.172305   6.931592
    31  H    9.835792   8.830552   7.371404   6.520101   5.157430
                    6          7          8          9         10
     6  O    0.000000
     7  N    2.258551   0.000000
     8  C    2.889497   1.439201   0.000000
     9  C    2.856251   2.528110   1.416970   0.000000
    10  C    4.275221   2.436763   1.409290   2.420642   0.000000
    11  C    5.273754   3.733998   2.445361   2.796871   1.396464
    12  C    5.251174   4.266543   2.829256   2.427499   2.419869
    13  C    4.209445   3.792940   2.446266   1.399478   2.787625
    14  H    6.201260   6.973784   8.350323   8.917293   9.366675
    15  H    5.210471   6.389876   7.647959   8.012057   8.789643
    16  H    5.215853   6.412447   7.674479   8.013273   8.843700
    17  H    4.639469   4.895576   6.296965   7.058976   7.180203
    18  H    4.645386   4.921547   6.326253   7.058890   7.242378
    19  H    2.741654   4.060222   5.209457   5.476425   6.449632
    20  H    2.738317   4.041967   5.186433   5.486638   6.393497
    21  H    3.151281   2.553522   3.992150   4.956519   4.786812
    22  H    3.150081   1.032181   2.105482   3.411890   2.563775
    23  H    2.257002   2.839689   2.200088   1.074571   3.421463
    24  H    4.787446   2.643984   2.167185   3.411207   1.082925
    25  H    6.291624   4.584922   3.419831   3.879338   2.148446
    26  S    6.933096   6.063009   4.625964   4.081585   4.078835
    27  C    7.484045   6.506795   5.143522   4.716959   4.536811
    28  F    7.764335   6.420889   5.161730   5.112906   4.263010
    29  F    8.747360   7.873462   6.500419   5.975532   5.902525
    30  F    6.803896   6.084558   4.810197   4.228548   4.527053
    31  H    4.654652   4.673643   3.423504   2.150836   3.870604
                   11         12         13         14         15
    11  C    0.000000
    12  C    1.395563   0.000000
    13  C    2.413560   1.396546   0.000000
    14  H   10.702581  11.133691  10.314460   0.000000
    15  H   10.044231  10.309650   9.375426   1.804258   0.000000
    16  H   10.101019  10.346439   9.385812   1.805078   1.811042
    17  H    8.535294   9.095520   8.435688   2.483576   2.500821
    18  H    8.598538   9.134762   8.445766   2.486064   3.090309
    19  H    7.642353   7.815572   6.843746   3.779733   3.141889
    20  H    7.584370   7.781303   6.841251   3.769509   2.548254
    21  H    6.165621   6.815297   6.298444   4.670781   4.500762
    22  H    3.958416   4.772757   4.551429   6.918721   6.555447
    23  H    3.869181   3.370036   2.104966   8.454333   7.434720
    24  H    2.136456   3.389891   3.870261   9.231429   8.821721
    25  H    1.082496   2.154213   3.397300  11.496574  10.916764
    26  S    2.776803   1.796760   2.772779  12.910481  12.036687
    27  C    3.336159   2.680998   3.567619  13.315798  12.618934
    28  F    3.123544   3.078167   4.199628  13.267982  12.726600
    29  F    4.656003   3.932760   4.739975  14.645818  13.918716
    30  F    3.627705   2.853981   3.238344  12.616913  11.938424
    31  H    3.395766   2.152580   1.082983  10.851780   9.806263
                   16         17         18         19         20
    16  H    0.000000
    17  H    3.088894   0.000000
    18  H    2.507922   1.807675   0.000000
    19  H    2.562460   3.092213   2.504249   0.000000
    20  H    3.122326   2.508560   3.090472   1.811425   0.000000
    21  H    4.515924   2.543586   2.564341   2.877219   2.870636
    22  H    6.586827   4.718873   4.757462   4.445677   4.418665
    23  H    7.405785   6.798545   6.766516   4.889798   4.941770
    24  H    8.892962   6.966219   7.051320   6.643241   6.567482
    25  H   10.989478   9.265183   9.346692   8.575430   8.500379
    26  S   12.079937  10.879169  10.924732   9.536640   9.495616
    27  C   12.410637  11.393393  11.160188   9.859838  10.135110
    28  F   12.498234  11.265267  11.003769   9.995023  10.295607
    29  F   13.689568  12.754525  12.502240  11.134974  11.429213
    30  F   11.583647  10.866395  10.474084   9.045170   9.508021
    31  H    9.801067   9.106109   9.099834   7.281323   7.297420
                   21         22         23         24         25
    21  H    0.000000
    22  H    2.263013   0.000000
    23  H    4.935756   3.846618   0.000000
    24  H    4.567504   2.325207   4.341197   0.000000
    25  H    6.880114   4.622848   4.951600   2.447542   0.000000
    26  S    8.610339   6.538599   4.877035   4.913191   2.914376
    27  C    8.977703   6.902351   5.495161   5.257939   3.329480
    28  F    8.772714   6.612717   6.021925   4.730317   2.767593
    29  F   10.349081   8.283530   6.675645   6.602699   4.531167
    30  F    8.480227   6.583165   4.838007   5.334813   3.948948
    31  H    7.095054   5.512269   2.404384   4.953237   4.294121
                   26         27         28         29         30
    26  S    0.000000
    27  C    1.823771   0.000000
    28  F    2.639944   1.382235   0.000000
    29  F    2.615092   1.381375   2.247502   0.000000
    30  F    2.648561   1.382893   2.268304   2.242516   0.000000
    31  H    2.902322   3.726851   4.652284   4.677738   3.286914
                   31
    31  H    0.000000
 Stoichiometry    C11H13F3N2OS
 Framework group  C1[X(C11H13F3N2OS)]
 Deg. of freedom    87
 Full point group                 C1      NOp   1
 Largest Abelian subgroup         C1      NOp   1
 Largest concise Abelian subgroup C1      NOp   1
                         Standard orientation:                         
 ---------------------------------------------------------------------
 Center     Atomic      Atomic             Coordinates (Angstroms)
 Number     Number       Type             X           Y           Z
 ---------------------------------------------------------------------
      1          6           0        7.863489   -0.419381    0.405538
      2          6           0        6.614491    0.457065    0.398246
      3          6           0        5.350574   -0.376894    0.157346
      4          7           0        4.168322    0.466884    0.131220
      5          6           0        2.921712   -0.044006   -0.076818
      6          8           0        2.788613   -1.247007   -0.237651
      7          7           0        1.846239    0.801965   -0.116411
      8          6           0        0.463944    0.466343   -0.335311
      9          6           0       -0.031979   -0.855243   -0.458904
     10          6           0       -0.457972    1.527508   -0.435808
     11          6           0       -1.815746    1.289630   -0.659352
     12          6           0       -2.287919   -0.018129   -0.779417
     13          6           0       -1.394697   -1.086849   -0.677759
     14          1           0        8.759820    0.211889    0.582067
     15          1           0        7.978889   -0.933908   -0.572335
     16          1           0        7.798258   -1.179438    1.212871
     17          1           0        6.715493    1.217917   -0.406257
     18          1           0        6.532602    0.979517    1.376271
     19          1           0        5.247927   -1.131092    0.968584
     20          1           0        5.442677   -0.904178   -0.817988
     21          1           0        4.276910    1.484625    0.266060
     22          1           0        2.051736    1.805818    0.007872
     23          1           0        0.589093   -1.729488   -0.390574
     24          1           0       -0.121346    2.552964   -0.347202
     25          1           0       -2.499132    2.125329   -0.739278
     26         16           0       -4.032000   -0.330097   -1.078087
     27          6           0       -4.552252   -0.094790    0.653995
     28          9           0       -4.461637    1.240373    0.999974
     29          9           0       -5.867438   -0.498958    0.777003
     30          9           0       -3.777403   -0.862755    1.503837
     31          1           0       -1.755317   -2.103762   -0.770998
 ---------------------------------------------------------------------
 Rotational constants (GHZ):      1.4357548      0.1041993      0.1032002
 General basis read from cards:  (6D, 7F)
 There are   372 symmetry adapted cartesian basis functions of A   symmetry.
 There are   372 symmetry adapted basis functions of A   symmetry.
   372 basis functions,   652 primitive gaussians,   372 cartesian basis functions
    72 alpha electrons       72 beta electrons
       nuclear repulsion energy      1398.3341179544 Hartrees.
 NAtoms=   31 NActive=   31 NUniq=   31 SFac= 1.00D+00 NAtFMM=   60 NAOKFM=F Big=F
 Integral buffers will be    131072 words long.
 Raffenetti 2 integral format.
 Two-electron integral symmetry is turned on.
 One-electron integrals computed using PRISM.
 NBasis=   372 RedAO= T EigKep=  1.65D-06  NBF=   372
 NBsUse=   372 1.00D-06 EigRej= -1.00D+00 NBFU=   372
 ExpMin= 4.05D-02 ExpMax= 2.19D+04 ExpMxC= 3.30D+03 IAcc=3 IRadAn=         5 AccDes= 0.00D+00
 Harris functional with IExCor= 1009 and IRadAn=       5 diagonalized for initial guess.
 HarFok:  IExCor= 1009 AccDes= 0.00D+00 IRadAn=         5 IDoV= 1 UseB2=F ITyADJ=14
 ICtDFT=  3500011 ScaDFX=  1.000000  1.000000  1.000000  1.000000
 FoFCou: FMM=F IPFlag=           0 FMFlag=      100000 FMFlg1=           0
         NFxFlg=           0 DoJE=T BraDBF=F KetDBF=T FulRan=T
         wScrn=  0.000000 ICntrl=     500 IOpCl=  0 I1Cent=   200000004 NGrid=           0
         NMat0=    1 NMatS0=      1 NMatT0=    0 NMatD0=    1 NMtDS0=    0 NMtDT0=    0
 Petite list used in FoFCou.
 Requested convergence on RMS density matrix=1.00D-08 within 128 cycles.
 Requested convergence on MAX density matrix=1.00D-06.
 Requested convergence on             energy=1.00D-06.
 No special actions if energy rises.
 SCF Done:  E(RM062X) =  -1309.09746354     A.U. after   15 cycles
            NFock= 15  Conv=0.61D-08     -V/T= 2.0071

 **********************************************************************

            Population analysis using the SCF density.

 **********************************************************************

 Orbital symmetries:
       Occupied  (A) (A) (A) (A) (A) (A) (A) (A) (A) (A) (A) (A)
                 (A) (A) (A) (A) (A) (A) (A) (A) (A) (A) (A) (A)
                 (A) (A) (A) (A) (A) (A) (A) (A) (A) (A) (A) (A)
                 (A) (A) (A) (A) (A) (A) (A) (A) (A) (A) (A) (A)
                 (A) (A) (A) (A) (A) (A) (A) (A) (A) (A) (A) (A)
                 (A) (A) (A) (A) (A) (A) (A) (A) (A) (A) (A) (A)
       Virtual   (A) (A) (A) (A) (A) (A) (A) (A) (A) (A) (A) (A)
                 (A) (A) (A) (A) (A) (A) (A) (A) (A) (A) (A) (A)
                 (A) (A) (A) (A) (A) (A) (A) (A) (A) (A) (A) (A)
                 (A) (A) (A) (A) (A) (A) (A) (A) (A) (A) (A) (A)
                 (A) (A) (A) (A) (A) (A) (A) (A) (A) (A) (A) (A)
                 (A) (A) (A) (A) (A) (A) (A) (A) (A) (A) (A) (A)
                 (A) (A) (A) (A) (A) (A) (A) (A) (A) (A) (A) (A)
                 (A) (A) (A) (A) (A) (A) (A) (A) (A) (A) (A) (A)
                 (A) (A) (A) (A) (A) (A) (A) (A) (A) (A) (A) (A)
                 (A) (A) (A) (A) (A) (A) (A) (A) (A) (A) (A) (A)
                 (A) (A) (A) (A) (A) (A) (A) (A) (A) (A) (A) (A)
                 (A) (A) (A) (A) (A) (A) (A) (A) (A) (A) (A) (A)
                 (A) (A) (A) (A) (A) (A) (A) (A) (A) (A) (A) (A)
                 (A) (A) (A) (A) (A) (A) (A) (A) (A) (A) (A) (A)
                 (A) (A) (A) (A) (A) (A) (A) (A) (A) (A) (A) (A)
                 (A) (A) (A) (A) (A) (A) (A) (A) (A) (A) (A) (A)
                 (A) (A) (A) (A) (A) (A) (A) (A) (A) (A) (A) (A)
                 (A) (A) (A) (A) (A) (A) (A) (A) (A) (A) (A) (A)
                 (A) (A) (A) (A) (A) (A) (A) (A) (A) (A) (A) (A)
                 (A) (A) (A) (A) (A) (A) (A) (A) (A) (A) (A) (A)
                 (A) (A) (A) (A) (A) (A) (A) (A) (A) (A) (A) (A)
                 (A) (A) (A) (A) (A) (A) (A) (A) (A) (A) (A) (A)
                 (A) (A) (A) (A) (A) (A) (A) (A) (A) (A) (A) (A)
                 (A) (A) (A) (A) (A) (A) (A) (A) (A) (A) (A) (A)
                 (A) (A) (A) (A) (A) (A) (A) (A) (A) (A) (A) (A)
 The electronic state is 1-A.
 Alpha  occ. eigenvalues --  -89.95681 -25.31059 -25.31001 -25.30819 -19.60857
 Alpha  occ. eigenvalues --  -14.82136 -14.80061 -10.83892 -10.69052 -10.63141
 Alpha  occ. eigenvalues --  -10.59768 -10.59680 -10.57884 -10.57698 -10.57465
 Alpha  occ. eigenvalues --  -10.56939 -10.56540 -10.55678  -8.30106  -6.22187
 Alpha  occ. eigenvalues --   -6.21940  -6.21467  -1.44763  -1.37156  -1.36976
 Alpha  occ. eigenvalues --   -1.18540  -1.06068  -1.03782  -0.97863  -0.91286
 Alpha  occ. eigenvalues --   -0.89454  -0.86289  -0.84581  -0.79381  -0.77141
 Alpha  occ. eigenvalues --   -0.72559  -0.70888  -0.69475  -0.68447  -0.68335
 Alpha  occ. eigenvalues --   -0.67447  -0.64487  -0.63720  -0.61990  -0.57080
 Alpha  occ. eigenvalues --   -0.57007  -0.56893  -0.55978  -0.54412  -0.54067
 Alpha  occ. eigenvalues --   -0.53600  -0.53314  -0.53097  -0.51838  -0.51245
 Alpha  occ. eigenvalues --   -0.50929  -0.49483  -0.48205  -0.47706  -0.46285
 Alpha  occ. eigenvalues --   -0.44197  -0.43801  -0.42815  -0.41845  -0.41456
 Alpha  occ. eigenvalues --   -0.41258  -0.38103  -0.34577  -0.32912  -0.32638
 Alpha  occ. eigenvalues --   -0.32204  -0.28667
 Alpha virt. eigenvalues --   -0.01156  -0.00784   0.00384   0.01412   0.02051
 Alpha virt. eigenvalues --    0.02891   0.03086   0.03471   0.03672   0.04271
 Alpha virt. eigenvalues --    0.04674   0.05062   0.05736   0.06116   0.06331
 Alpha virt. eigenvalues --    0.06743   0.07434   0.07724   0.08158   0.08305
 Alpha virt. eigenvalues --    0.08551   0.08897   0.09736   0.10096   0.10223
 Alpha virt. eigenvalues --    0.11173   0.11619   0.11752   0.11930   0.12830
 Alpha virt. eigenvalues --    0.13662   0.14090   0.14608   0.14825   0.15252
 Alpha virt. eigenvalues --    0.15647   0.16127   0.16407   0.16806   0.17453
 Alpha virt. eigenvalues --    0.17736   0.18397   0.18783   0.19233   0.19713
 Alpha virt. eigenvalues --    0.19943   0.20223   0.20509   0.20766   0.21117
 Alpha virt. eigenvalues --    0.21953   0.22339   0.22471   0.23014   0.23492
 Alpha virt. eigenvalues --    0.24107   0.24366   0.24492   0.24915   0.25102
 Alpha virt. eigenvalues --    0.26032   0.26183   0.26768   0.27446   0.27675
 Alpha virt. eigenvalues --    0.27985   0.28272   0.29075   0.29359   0.29701
 Alpha virt. eigenvalues --    0.30439   0.31024   0.31150   0.32062   0.32125
 Alpha virt. eigenvalues --    0.32556   0.32935   0.33704   0.34027   0.34368
 Alpha virt. eigenvalues --    0.34597   0.35435   0.35509   0.37006   0.37268
 Alpha virt. eigenvalues --    0.38166   0.38405   0.38874   0.39262   0.39760
 Alpha virt. eigenvalues --    0.40178   0.40709   0.41233   0.42462   0.43833
 Alpha virt. eigenvalues --    0.44857   0.45129   0.45564   0.47128   0.48535
 Alpha virt. eigenvalues --    0.50008   0.50578   0.51944   0.53206   0.54499
 Alpha virt. eigenvalues --    0.57657   0.57953   0.59682   0.64869   0.66043
 Alpha virt. eigenvalues --    0.67610   0.67885   0.68098   0.70256   0.71948
 Alpha virt. eigenvalues --    0.71975   0.73466   0.73819   0.74392   0.75241
 Alpha virt. eigenvalues --    0.75440   0.76548   0.77417   0.77989   0.79783
 Alpha virt. eigenvalues --    0.81707   0.82410   0.84088   0.84495   0.85551
 Alpha virt. eigenvalues --    0.87060   0.87561   0.87848   0.88585   0.90146
 Alpha virt. eigenvalues --    0.92353   0.93002   0.95191   0.96527   0.97432
 Alpha virt. eigenvalues --    0.98678   0.98817   0.99653   0.99916   1.01268
 Alpha virt. eigenvalues --    1.02443   1.03006   1.03402   1.03723   1.04375
 Alpha virt. eigenvalues --    1.04914   1.06351   1.09414   1.09725   1.10438
 Alpha virt. eigenvalues --    1.11658   1.12973   1.13343   1.13928   1.15015
 Alpha virt. eigenvalues --    1.16091   1.16831   1.20340   1.21102   1.23985
 Alpha virt. eigenvalues --    1.27103   1.29214   1.30323   1.30690   1.31222
 Alpha virt. eigenvalues --    1.32291   1.35150   1.35511   1.36393   1.38431
 Alpha virt. eigenvalues --    1.39022   1.40389   1.42042   1.43640   1.44009
 Alpha virt. eigenvalues --    1.45380   1.46601   1.47644   1.48662   1.50792
 Alpha virt. eigenvalues --    1.53728   1.54176   1.55079   1.55947   1.57286
 Alpha virt. eigenvalues --    1.58898   1.59517   1.61224   1.66137   1.68534
 Alpha virt. eigenvalues --    1.69168   1.69700   1.71936   1.73592   1.74413
 Alpha virt. eigenvalues --    1.76095   1.76215   1.78365   1.80276   1.83326
 Alpha virt. eigenvalues --    1.83603   1.84720   1.86474   1.87187   1.88147
 Alpha virt. eigenvalues --    1.89075   1.89357   1.90411   1.90615   1.90897
 Alpha virt. eigenvalues --    1.91824   1.92776   1.93025   1.95482   1.96164
 Alpha virt. eigenvalues --    1.98447   1.99926   2.01669   2.01883   2.02508
 Alpha virt. eigenvalues --    2.03198   2.03698   2.04793   2.05011   2.06446
 Alpha virt. eigenvalues --    2.06695   2.10242   2.11694   2.13564   2.14946
 Alpha virt. eigenvalues --    2.16749   2.17701   2.18457   2.18936   2.19434
 Alpha virt. eigenvalues --    2.21955   2.24298   2.24813   2.26758   2.28883
 Alpha virt. eigenvalues --    2.29923   2.31041   2.32512   2.34627   2.35248
 Alpha virt. eigenvalues --    2.37405   2.37870   2.39153   2.40472   2.41698
 Alpha virt. eigenvalues --    2.48464   2.55813   2.57441   2.63401   2.64491
 Alpha virt. eigenvalues --    2.64705   2.66337   2.67331   2.70972   2.72151
 Alpha virt. eigenvalues --    2.73619   2.76074   2.77347   2.78512   2.78937
 Alpha virt. eigenvalues --    2.79750   2.81499   2.89587   2.97052   3.04499
 Alpha virt. eigenvalues --    3.11485   3.13518   3.17145   3.24675   3.27252
 Alpha virt. eigenvalues --    3.31729   3.39813   4.01986   4.13840   4.24187
 Alpha virt. eigenvalues --    4.27477   4.30808   4.34501   4.40133   4.41787
 Alpha virt. eigenvalues --    4.43888   4.48024   4.49152   4.53567   4.57822
 Alpha virt. eigenvalues --    4.66666   4.76407   5.57176   5.68168   6.28072
          Condensed to atoms (all electrons):
               1          2          3          4          5          6
     1  C    5.554465  -0.003062   0.005448  -0.003851  -0.038237  -0.002221
     2  C   -0.003062   6.152288  -0.420763  -0.086681   0.140954   0.021058
     3  C    0.005448  -0.420763   6.875893   0.379466  -0.506905  -0.097444
     4  N   -0.003851  -0.086681   0.379466   7.761055   0.373841  -0.210727
     5  C   -0.038237   0.140954  -0.506905   0.373841   6.710071   0.625728
     6  O   -0.002221   0.021058  -0.097444  -0.210727   0.625728   8.306425
     7  N   -0.003158   0.022219  -0.173215  -0.444903   0.054973  -0.076838
     8  C   -0.006544   0.020815  -0.393058  -0.209623  -0.970166  -0.413118
     9  C   -0.001588  -0.004642   0.015080   0.071676   1.150840   0.329947
    10  C   -0.001312   0.007018  -0.109488  -0.138100  -1.433939  -0.143995
    11  C   -0.000025   0.000344   0.004337   0.008206   0.084310   0.011362
    12  C   -0.000147   0.000873  -0.023979  -0.007478  -0.387057   0.003783
    13  C   -0.000965  -0.001332  -0.048523   0.016911  -0.515508   0.233028
    14  H    0.410428  -0.085195   0.027682   0.000533  -0.002306   0.000009
    15  H    0.419272  -0.067325  -0.007711   0.000492  -0.000057  -0.000062
    16  H    0.414577  -0.064466  -0.006857   0.000538   0.000863  -0.000060
    17  H   -0.030430   0.413418  -0.074694   0.007327  -0.003699  -0.000256
    18  H   -0.027464   0.412434  -0.075662   0.007089  -0.004136  -0.000219
    19  H    0.002486  -0.050971   0.416710  -0.056248  -0.002270   0.000683
    20  H    0.007268  -0.058610   0.431718  -0.060397  -0.011651   0.001255
    21  H   -0.001988   0.000459  -0.091129   0.229111   0.039973   0.008813
    22  H   -0.000170   0.000493   0.000170   0.022289  -0.021780   0.008001
    23  H   -0.000002   0.000065   0.000933  -0.000453   0.001541  -0.003085
    24  H   -0.000000   0.000013  -0.000107   0.001195   0.003057   0.000034
    25  H    0.000000   0.000000   0.000021   0.000001   0.002919  -0.000000
    26  S   -0.000006   0.000019  -0.001694  -0.000316  -0.066597   0.000389
    27  C    0.000000  -0.000003   0.000177   0.000031   0.010267  -0.000034
    28  F   -0.000000  -0.000000  -0.000002   0.000000  -0.000432   0.000001
    29  F    0.000000  -0.000000  -0.000000   0.000000  -0.000010   0.000000
    30  F   -0.000000   0.000000  -0.000013  -0.000003  -0.002184   0.000000
    31  H    0.000000   0.000001   0.000031   0.000014   0.002223   0.000198
               7          8          9         10         11         12
     1  C   -0.003158  -0.006544  -0.001588  -0.001312  -0.000025  -0.000147
     2  C    0.022219   0.020815  -0.004642   0.007018   0.000344   0.000873
     3  C   -0.173215  -0.393058   0.015080  -0.109488   0.004337  -0.023979
     4  N   -0.444903  -0.209623   0.071676  -0.138100   0.008206  -0.007478
     5  C    0.054973  -0.970166   1.150840  -1.433939   0.084310  -0.387057
     6  O   -0.076838  -0.413118   0.329947  -0.143995   0.011362   0.003783
     7  N    7.868612   0.230945  -0.363020   0.368307   0.027174  -0.026068
     8  C    0.230945  11.249485  -0.502835  -0.114097   0.590058  -1.533525
     9  C   -0.363020  -0.502835  16.483331  -3.399637  -1.042176  -0.540396
    10  C    0.368307  -0.114097  -3.399637  15.663329  -3.248090   1.795535
    11  C    0.027174   0.590058  -1.042176  -3.248090  10.143247  -1.566016
    12  C   -0.026068  -1.533525  -0.540396   1.795535  -1.566016   8.637836
    13  C   -0.093558  -1.908262  -6.383062  -2.391740   0.839186  -0.027396
    14  H    0.000010  -0.000042   0.000004  -0.000002  -0.000000  -0.000000
    15  H    0.000017   0.000012  -0.000039   0.000000   0.000000  -0.000000
    16  H    0.000009   0.000029  -0.000049   0.000003   0.000000  -0.000000
    17  H   -0.000169  -0.000187  -0.000354   0.000106   0.000003  -0.000001
    18  H    0.000211  -0.000608  -0.000075   0.000047   0.000003  -0.000002
    19  H   -0.000161  -0.002844   0.002344  -0.000641   0.000021   0.000002
    20  H    0.000842  -0.003599   0.002562  -0.001109   0.000005  -0.000021
    21  H    0.034432   0.023113   0.000943  -0.000782   0.000132  -0.000051
    22  H    0.226746   0.008169   0.018516  -0.102017   0.044775  -0.004354
    23  H   -0.014976   0.077351   0.192175   0.054072  -0.019988   0.018687
    24  H   -0.011593   0.091889   0.091379   0.120305   0.008604   0.028983
    25  H    0.000159   0.019387  -0.027071  -0.068053   0.289624   0.053545
    26  S   -0.006498  -0.252917  -0.864494   0.130221   0.045079  -0.339605
    27  C    0.001312   0.074277   0.136402  -0.000031   0.016650  -0.139134
    28  F    0.000009  -0.010819   0.014757   0.011425   0.058599  -0.022631
    29  F    0.000002  -0.002449   0.005645   0.003002  -0.003390   0.025991
    30  F   -0.000181  -0.026780  -0.058363   0.042807  -0.124891   0.110599
    31  H   -0.000564   0.001789   0.024297  -0.038451   0.047541   0.043937
              13         14         15         16         17         18
     1  C   -0.000965   0.410428   0.419272   0.414577  -0.030430  -0.027464
     2  C   -0.001332  -0.085195  -0.067325  -0.064466   0.413418   0.412434
     3  C   -0.048523   0.027682  -0.007711  -0.006857  -0.074694  -0.075662
     4  N    0.016911   0.000533   0.000492   0.000538   0.007327   0.007089
     5  C   -0.515508  -0.002306  -0.000057   0.000863  -0.003699  -0.004136
     6  O    0.233028   0.000009  -0.000062  -0.000060  -0.000256  -0.000219
     7  N   -0.093558   0.000010   0.000017   0.000009  -0.000169   0.000211
     8  C   -1.908262  -0.000042   0.000012   0.000029  -0.000187  -0.000608
     9  C   -6.383062   0.000004  -0.000039  -0.000049  -0.000354  -0.000075
    10  C   -2.391740  -0.000002   0.000000   0.000003   0.000106   0.000047
    11  C    0.839186  -0.000000   0.000000   0.000000   0.000003   0.000003
    12  C   -0.027396  -0.000000  -0.000000  -0.000000  -0.000001  -0.000002
    13  C   15.944152   0.000000  -0.000004  -0.000004  -0.000041  -0.000009
    14  H    0.000000   0.491096  -0.024174  -0.024007  -0.003090  -0.003070
    15  H   -0.000004  -0.024174   0.493021  -0.027825  -0.004904   0.003951
    16  H   -0.000004  -0.024007  -0.027825   0.492615   0.003977  -0.004818
    17  H   -0.000041  -0.003090  -0.004904   0.003977   0.513040  -0.034026
    18  H   -0.000009  -0.003070   0.003951  -0.004818  -0.034026   0.511021
    19  H    0.000424  -0.000066  -0.000311   0.002686   0.003912  -0.005473
    20  H    0.000364  -0.000056   0.002743  -0.000345  -0.005342   0.003918
    21  H    0.000781  -0.000003   0.000001   0.000001   0.000992   0.000993
    22  H    0.034502  -0.000000  -0.000000   0.000000   0.000002   0.000002
    23  H   -0.001676   0.000000  -0.000000  -0.000000  -0.000000  -0.000000
    24  H   -0.041482   0.000000  -0.000000   0.000000   0.000000   0.000000
    25  H    0.039814  -0.000000   0.000000   0.000000  -0.000000  -0.000000
    26  S    0.513628  -0.000000  -0.000000  -0.000000  -0.000000  -0.000000
    27  C    0.022979   0.000000   0.000000   0.000000   0.000000   0.000000
    28  F   -0.053210   0.000000   0.000000  -0.000000  -0.000000   0.000000
    29  F   -0.009858   0.000000   0.000000  -0.000000   0.000000   0.000000
    30  F    0.066304   0.000000   0.000000  -0.000000  -0.000000   0.000000
    31  H    0.240653  -0.000000   0.000000   0.000000   0.000000   0.000000
              19         20         21         22         23         24
     1  C    0.002486   0.007268  -0.001988  -0.000170  -0.000002  -0.000000
     2  C   -0.050971  -0.058610   0.000459   0.000493   0.000065   0.000013
     3  C    0.416710   0.431718  -0.091129   0.000170   0.000933  -0.000107
     4  N   -0.056248  -0.060397   0.229111   0.022289  -0.000453   0.001195
     5  C   -0.002270  -0.011651   0.039973  -0.021780   0.001541   0.003057
     6  O    0.000683   0.001255   0.008813   0.008001  -0.003085   0.000034
     7  N   -0.000161   0.000842   0.034432   0.226746  -0.014976  -0.011593
     8  C   -0.002844  -0.003599   0.023113   0.008169   0.077351   0.091889
     9  C    0.002344   0.002562   0.000943   0.018516   0.192175   0.091379
    10  C   -0.000641  -0.001109  -0.000782  -0.102017   0.054072   0.120305
    11  C    0.000021   0.000005   0.000132   0.044775  -0.019988   0.008604
    12  C    0.000002  -0.000021  -0.000051  -0.004354   0.018687   0.028983
    13  C    0.000424   0.000364   0.000781   0.034502  -0.001676  -0.041482
    14  H   -0.000066  -0.000056  -0.000003  -0.000000   0.000000   0.000000
    15  H   -0.000311   0.002743   0.000001  -0.000000  -0.000000  -0.000000
    16  H    0.002686  -0.000345   0.000001   0.000000  -0.000000   0.000000
    17  H    0.003912  -0.005342   0.000992   0.000002  -0.000000   0.000000
    18  H   -0.005473   0.003918   0.000993   0.000002  -0.000000   0.000000
    19  H    0.494231  -0.035265   0.002785   0.000004  -0.000000   0.000000
    20  H   -0.035265   0.495578   0.002815   0.000004  -0.000001   0.000000
    21  H    0.002785   0.002815   0.347165   0.002637   0.000001   0.000004
    22  H    0.000004   0.000004   0.002637   0.348720  -0.000123   0.006690
    23  H   -0.000000  -0.000001   0.000001  -0.000123   0.426913  -0.000108
    24  H    0.000000   0.000000   0.000004   0.006690  -0.000108   0.507809
    25  H   -0.000000  -0.000000  -0.000000  -0.000011   0.000011  -0.004440
    26  S    0.000000  -0.000000   0.000001   0.000529   0.000642  -0.000623
    27  C    0.000000  -0.000000  -0.000000  -0.000050  -0.000419   0.000226
    28  F    0.000000  -0.000000  -0.000000   0.000000  -0.000000   0.000009
    29  F    0.000000  -0.000000  -0.000000  -0.000000  -0.000000  -0.000001
    30  F    0.000000  -0.000000   0.000000   0.000000  -0.000005  -0.000015
    31  H   -0.000000  -0.000000  -0.000000   0.000002  -0.004444   0.000014
              25         26         27         28         29         30
     1  C    0.000000  -0.000006   0.000000  -0.000000   0.000000  -0.000000
     2  C    0.000000   0.000019  -0.000003  -0.000000  -0.000000   0.000000
     3  C    0.000021  -0.001694   0.000177  -0.000002  -0.000000  -0.000013
     4  N    0.000001  -0.000316   0.000031   0.000000   0.000000  -0.000003
     5  C    0.002919  -0.066597   0.010267  -0.000432  -0.000010  -0.002184
     6  O   -0.000000   0.000389  -0.000034   0.000001   0.000000   0.000000
     7  N    0.000159  -0.006498   0.001312   0.000009   0.000002  -0.000181
     8  C    0.019387  -0.252917   0.074277  -0.010819  -0.002449  -0.026780
     9  C   -0.027071  -0.864494   0.136402   0.014757   0.005645  -0.058363
    10  C   -0.068053   0.130221  -0.000031   0.011425   0.003002   0.042807
    11  C    0.289624   0.045079   0.016650   0.058599  -0.003390  -0.124891
    12  C    0.053545  -0.339605  -0.139134  -0.022631   0.025991   0.110599
    13  C    0.039814   0.513628   0.022979  -0.053210  -0.009858   0.066304
    14  H   -0.000000  -0.000000   0.000000   0.000000   0.000000   0.000000
    15  H    0.000000  -0.000000   0.000000   0.000000   0.000000   0.000000
    16  H    0.000000  -0.000000   0.000000  -0.000000  -0.000000  -0.000000
    17  H   -0.000000  -0.000000   0.000000  -0.000000   0.000000  -0.000000
    18  H   -0.000000  -0.000000   0.000000   0.000000   0.000000   0.000000
    19  H   -0.000000   0.000000   0.000000   0.000000   0.000000   0.000000
    20  H   -0.000000  -0.000000  -0.000000  -0.000000  -0.000000  -0.000000
    21  H   -0.000000   0.000001  -0.000000  -0.000000  -0.000000   0.000000
    22  H   -0.000011   0.000529  -0.000050   0.000000  -0.000000   0.000000
    23  H    0.000011   0.000642  -0.000419  -0.000000  -0.000000  -0.000005
    24  H   -0.004440  -0.000623   0.000226   0.000009  -0.000001  -0.000015
    25  H    0.467569  -0.002328  -0.003470   0.000067  -0.000101   0.000093
    26  S   -0.002328  16.452408   0.165270  -0.070911  -0.093846  -0.073252
    27  C   -0.003470   0.165270   4.700886   0.139728   0.168879   0.153165
    28  F    0.000067  -0.070911   0.139728   9.289966  -0.033827  -0.044817
    29  F   -0.000101  -0.093846   0.168879  -0.033827   9.259364  -0.031516
    30  F    0.000093  -0.073252   0.153165  -0.044817  -0.031516   9.248595
    31  H   -0.000140  -0.015850   0.001781  -0.000001  -0.000036  -0.000797
              31
     1  C    0.000000
     2  C    0.000001
     3  C    0.000031
     4  N    0.000014
     5  C    0.002223
     6  O    0.000198
     7  N   -0.000564
     8  C    0.001789
     9  C    0.024297
    10  C   -0.038451
    11  C    0.047541
    12  C    0.043937
    13  C    0.240653
    14  H   -0.000000
    15  H    0.000000
    16  H    0.000000
    17  H    0.000000
    18  H    0.000000
    19  H   -0.000000
    20  H   -0.000000
    21  H   -0.000000
    22  H    0.000002
    23  H   -0.004444
    24  H    0.000014
    25  H   -0.000140
    26  S   -0.015850
    27  C    0.001781
    28  F   -0.000001
    29  F   -0.000036
    30  F   -0.000797
    31  H    0.464257
 Mulliken charges:
               1
     1  C   -0.692776
     2  C   -0.349419
     3  C   -0.126421
     4  N   -0.660994
     5  C    0.765374
     6  O   -0.602654
     7  N   -0.621077
     8  C   -0.035845
     9  C    0.647902
    10  C   -1.004694
    11  C   -0.214683
    12  C   -0.101910
    13  C   -0.476094
    14  H    0.212248
    15  H    0.212902
    16  H    0.213133
    17  H    0.214415
    18  H    0.215892
    19  H    0.227962
    20  H    0.227323
    21  H    0.398803
    22  H    0.406254
    23  H    0.272890
    24  H    0.198158
    25  H    0.232405
    26  S    0.480751
    27  C    0.551111
    28  F   -0.277910
    29  F   -0.287847
    30  F   -0.258745
    31  H    0.233547
 Sum of Mulliken charges =  -0.00000
 Mulliken charges with hydrogens summed into heavy atoms:
               1
     1  C   -0.054493
     2  C    0.080888
     3  C    0.328864
     4  N   -0.262191
     5  C    0.765374
     6  O   -0.602654
     7  N   -0.214823
     8  C   -0.035845
     9  C    0.920792
    10  C   -0.806535
    11  C    0.017721
    12  C   -0.101910
    13  C   -0.242547
    26  S    0.480751
    27  C    0.551111
    28  F   -0.277910
    29  F   -0.287847
    30  F   -0.258745
 Electronic spatial extent (au):  <R**2>=           9891.7769
 Charge=             -0.0000 electrons
 Dipole moment (field-independent basis, Debye):
    X=              5.2096    Y=              4.0358    Z=             -0.1864  Tot=              6.5926
 Quadrupole moment (field-independent basis, Debye-Ang):
   XX=           -104.9414   YY=           -106.5336   ZZ=           -116.5530
   XY=             11.0117   XZ=              6.2622   YZ=              0.2912
 Traceless Quadrupole moment (field-independent basis, Debye-Ang):
   XX=              4.4013   YY=              2.8090   ZZ=             -7.2103
   XY=             11.0117   XZ=              6.2622   YZ=              0.2912
 Octapole moment (field-independent basis, Debye-Ang**2):
  XXX=            145.2506  YYY=             16.2288  ZZZ=             26.5571  XYY=            -19.3900
  XXY=             35.8747  XXZ=              6.0682  XZZ=            -18.4459  YZZ=             -3.7779
  YYZ=              6.3779  XYZ=             -0.9258
 Hexadecapole moment (field-independent basis, Debye-Ang**3):
 XXXX=         -11102.4165 YYYY=           -570.1093 ZZZZ=           -454.9491 XXXY=            109.4543
 XXXZ=             20.8158 YYYX=             47.9191 YYYZ=             -2.8799 ZZZX=           -101.1749
 ZZZY=              2.6205 XXYY=          -2034.9780 XXZZ=          -2019.4796 YYZZ=           -185.5285
 XXYZ=              3.5724 YYXZ=            -17.5201 ZZXY=             -4.3317
 N-N= 1.398334117954D+03 E-N=-5.875162870007D+03  KE= 1.299892968935D+03
 Calling FoFJK, ICntrl=      2127 FMM=F ISym2X=0 I1Cent= 0 IOpClX= 0 NMat=1 NMatS=1 NMatT=0.
 ***** Axes restored to original set *****
 -------------------------------------------------------------------
 Center     Atomic                   Forces (Hartrees/Bohr)
 Number     Number              X              Y              Z
 -------------------------------------------------------------------
      1        6          -0.006125605    0.001138135    0.000363806
      2        6           0.005389266   -0.005252901   -0.000460808
      3        6          -0.005294218    0.006375748   -0.000039394
      4        7           0.010004612   -0.038099124   -0.001560066
      5        6          -0.010460103    0.029977511    0.000478529
      6        8           0.001111811    0.011219061    0.001035300
      7        7           0.023170904   -0.027248547   -0.002689058
      8        6          -0.010658758    0.002502154    0.001296493
      9        6           0.005005937   -0.003068992   -0.001060794
     10        6          -0.000242436    0.006496062    0.000849276
     11        6          -0.008852907    0.000611055    0.000326471
     12        6           0.002893166    0.001797031   -0.002296261
     13        6          -0.003400125   -0.012899295   -0.001694967
     14        1           0.005977042    0.009624864   -0.000121725
     15        1          -0.000178520   -0.005062882    0.009579196
     16        1          -0.001574033   -0.004687059   -0.009482712
     17        1           0.001654853    0.003012149    0.008705345
     18        1           0.000143230    0.003437578   -0.008707750
     19        1           0.000924409   -0.003061449   -0.010523044
     20        1           0.002402913   -0.003330108    0.010208890
     21        1          -0.004239753    0.017116090    0.001015195
     22        1           0.006302747    0.016219982    0.000176543
     23        1          -0.009833854   -0.002898616    0.000602749
     24        1          -0.001887161   -0.002937285   -0.000138843
     25        1           0.001532137   -0.001200071   -0.000409529
     26       16          -0.003201886   -0.002751520    0.008959287
     27        6           0.004717704    0.005846783    0.003736769
     28        9          -0.001556605    0.039071659    0.010934396
     29        9          -0.034775548   -0.019873435   -0.000644028
     30        9           0.031112497   -0.023601459   -0.019220170
     31        1          -0.000061715    0.001526880    0.000780902
 -------------------------------------------------------------------
 Cartesian Forces:  Max     0.039071659 RMS     0.011096540

 GradGradGradGradGradGradGradGradGradGradGradGradGradGradGradGradGradGrad
 Berny optimization.
 FormGI is forming the generalized inverse of G from B-inverse, IUseBI=4.
 Internal  Forces:  Max     0.041497361 RMS     0.008636676
 Search for a local minimum.
 Step number   1 out of a maximum of  158
 All quantities printed in internal units (Hartrees-Bohrs-Radians)
 Mixed Optimization -- RFO/linear search
 Second derivative matrix not updated -- first step.
 ITU=  0
     Eigenvalues ---    0.00230   0.00325   0.00413   0.00424   0.00995
     Eigenvalues ---    0.01173   0.01469   0.01640   0.01681   0.01821
     Eigenvalues ---    0.01942   0.01977   0.02049   0.02084   0.02103
     Eigenvalues ---    0.02115   0.02137   0.02141   0.02142   0.02179
     Eigenvalues ---    0.03749   0.04438   0.04931   0.05552   0.05672
     Eigenvalues ---    0.05785   0.08042   0.09172   0.11982   0.12664
     Eigenvalues ---    0.15140   0.15610   0.15998   0.16000   0.16000
     Eigenvalues ---    0.16000   0.16000   0.16000   0.16000   0.16000
     Eigenvalues ---    0.16000   0.21964   0.22000   0.22000   0.22001
     Eigenvalues ---    0.22003   0.22965   0.24000   0.24330   0.24999
     Eigenvalues ---    0.24999   0.25000   0.25000   0.25000   0.25000
     Eigenvalues ---    0.25000   0.25000   0.26374   0.29121   0.29810
     Eigenvalues ---    0.32331   0.32346   0.32400   0.32406   0.32496
     Eigenvalues ---    0.32523   0.32554   0.35636   0.35643   0.35694
     Eigenvalues ---    0.36658   0.37892   0.39695   0.40676   0.41279
     Eigenvalues ---    0.42423   0.42450   0.44212   0.45327   0.45938
     Eigenvalues ---    0.46263   0.48577   0.48696   0.48852   0.51189
     Eigenvalues ---    0.52305   0.94950
 RFO step:  Lambda=-2.89667753D-02 EMin= 2.30000000D-03
 Linear search not attempted -- first point.
 Iteration  1 RMS(Cart)=  0.07364461 RMS(Int)=  0.00199172
 Iteration  2 RMS(Cart)=  0.00297107 RMS(Int)=  0.00024565
 Iteration  3 RMS(Cart)=  0.00000801 RMS(Int)=  0.00024559
 Iteration  4 RMS(Cart)=  0.00000001 RMS(Int)=  0.00024559
 Variable       Old X    -DE/DX   Delta X   Delta X   Delta X     New X
                                 (Linear)    (Quad)   (Total)
    R1        2.88343   0.00217   0.00000   0.00665   0.00665   2.89008
    R2        2.09842  -0.01095   0.00000  -0.03089  -0.03089   2.06753
    R3        2.09946  -0.01056   0.00000  -0.02982  -0.02982   2.06964
    R4        2.09898  -0.01042   0.00000  -0.02941  -0.02941   2.06957
    R5        2.89752  -0.00542   0.00000  -0.01693  -0.01693   2.88058
    R6        2.10119  -0.00889   0.00000  -0.02518  -0.02518   2.07601
    R7        2.10108  -0.00893   0.00000  -0.02531  -0.02531   2.07577
    R8        2.74522  -0.00196   0.00000  -0.00481  -0.00481   2.74041
    R9        2.10215  -0.01047   0.00000  -0.02970  -0.02970   2.07245
   R10        2.10243  -0.01038   0.00000  -0.02945  -0.02945   2.07298
   R11        2.57608   0.00171   0.00000   0.00310   0.00310   2.57918
   R12        1.95088  -0.01724   0.00000  -0.03804  -0.03804   1.91284
   R13        2.30732   0.01122   0.00000   0.01147   0.01147   2.31879
   R14        2.58684   0.01145   0.00000   0.02116   0.02116   2.60800
   R15        2.71970  -0.03141   0.00000  -0.07374  -0.07374   2.64596
   R16        1.95054  -0.01661   0.00000  -0.03663  -0.03663   1.91391
   R17        2.67769  -0.01674   0.00000  -0.03731  -0.03726   2.64042
   R18        2.66317  -0.00862   0.00000  -0.01897  -0.01891   2.64426
   R19        2.64463  -0.00634   0.00000  -0.01315  -0.01317   2.63146
   R20        2.03064   0.00475   0.00000   0.01200   0.01200   2.04264
   R21        2.63893  -0.00825   0.00000  -0.01669  -0.01668   2.62226
   R22        2.04643   0.00324   0.00000   0.00840   0.00840   2.05483
   R23        2.63723  -0.00166   0.00000  -0.00265  -0.00270   2.63453
   R24        2.04562   0.00198   0.00000   0.00514   0.00514   2.05076
   R25        2.63909  -0.00167   0.00000  -0.00278  -0.00284   2.63625
   R26        3.39538  -0.00430   0.00000  -0.01469  -0.01469   3.38070
   R27        2.04654   0.00154   0.00000   0.00399   0.00399   2.05053
   R28        3.44643  -0.00530   0.00000  -0.01947  -0.01947   3.42696
   R29        2.61204  -0.03801   0.00000  -0.07368  -0.07368   2.53837
   R30        2.61042  -0.03937   0.00000  -0.07608  -0.07608   2.53434
   R31        2.61329  -0.04150   0.00000  -0.08062  -0.08062   2.53267
    A1        1.91235   0.00347   0.00000   0.01979   0.01965   1.93200
    A2        1.92499   0.00221   0.00000   0.01108   0.01099   1.93598
    A3        1.92672   0.00214   0.00000   0.01048   0.01041   1.93713
    A4        1.89585  -0.00254   0.00000  -0.01178  -0.01193   1.88393
    A5        1.89744  -0.00262   0.00000  -0.01274  -0.01287   1.88457
    A6        1.90599  -0.00282   0.00000  -0.01765  -0.01767   1.88832
    A7        1.94237  -0.00096   0.00000  -0.00056  -0.00056   1.94181
    A8        1.89880   0.00152   0.00000   0.01242   0.01242   1.91122
    A9        1.90286   0.00121   0.00000   0.00982   0.00982   1.91267
   A10        1.91068  -0.00021   0.00000  -0.00291  -0.00294   1.90774
   A11        1.91035  -0.00002   0.00000  -0.00209  -0.00212   1.90824
   A12        1.89822  -0.00156   0.00000  -0.01702  -0.01709   1.88114
   A13        1.93666  -0.00397   0.00000  -0.01287  -0.01282   1.92384
   A14        1.90736   0.00255   0.00000   0.01462   0.01460   1.92195
   A15        1.90421   0.00262   0.00000   0.01673   0.01672   1.92093
   A16        1.90902   0.00057   0.00000  -0.00073  -0.00068   1.90834
   A17        1.90380   0.00095   0.00000   0.00362   0.00367   1.90747
   A18        1.90247  -0.00272   0.00000  -0.02167  -0.02176   1.88072
   A19        2.12855  -0.00668   0.00000  -0.02682  -0.02682   2.10173
   A20        2.07676  -0.00040   0.00000  -0.00637  -0.00637   2.07039
   A21        2.07783   0.00708   0.00000   0.03321   0.03321   2.11104
   A22        2.08179   0.01427   0.00000   0.05119   0.05116   2.13295
   A23        2.08433  -0.02558   0.00000  -0.09165  -0.09168   1.99266
   A24        2.11699   0.01132   0.00000   0.04062   0.04059   2.15758
   A25        2.23302  -0.00526   0.00000  -0.02114  -0.02114   2.21187
   A26        2.02766   0.00769   0.00000   0.03736   0.03736   2.06502
   A27        2.02231  -0.00243   0.00000  -0.01619  -0.01620   2.00612
   A28        2.17356  -0.00540   0.00000  -0.01840  -0.01845   2.15510
   A29        2.05280  -0.00371   0.00000  -0.01233  -0.01238   2.04042
   A30        2.05683   0.00911   0.00000   0.03074   0.03083   2.08766
   A31        2.10457  -0.00522   0.00000  -0.02204  -0.02201   2.08256
   A32        2.15433  -0.00663   0.00000  -0.03786  -0.03787   2.11646
   A33        2.02427   0.01184   0.00000   0.05989   0.05988   2.08415
   A34        2.11671  -0.00216   0.00000  -0.00909  -0.00902   2.10769
   A35        2.09883  -0.00027   0.00000  -0.00260  -0.00263   2.09620
   A36        2.06762   0.00243   0.00000   0.01169   0.01166   2.07928
   A37        2.09713  -0.00226   0.00000  -0.00682  -0.00685   2.09027
   A38        2.08763   0.00128   0.00000   0.00417   0.00419   2.09182
   A39        2.09843   0.00099   0.00000   0.00265   0.00266   2.10109
   A40        2.08800  -0.00128   0.00000  -0.00166  -0.00178   2.08622
   A41        2.10067   0.00095   0.00000   0.00192   0.00196   2.10263
   A42        2.09448   0.00032   0.00000  -0.00033  -0.00030   2.09418
   A43        2.10311   0.00181   0.00000   0.00888   0.00881   2.11192
   A44        2.08645  -0.00139   0.00000  -0.00701  -0.00698   2.07947
   A45        2.09362  -0.00042   0.00000  -0.00186  -0.00183   2.09179
   A46        1.66757   0.01217   0.00000   0.04364   0.04364   1.71121
   A47        1.92160   0.01874   0.00000   0.06544   0.06417   1.98577
   A48        1.89485   0.00747   0.00000   0.02855   0.02738   1.92223
   A49        1.93067   0.01687   0.00000   0.06039   0.05905   1.98973
   A50        1.89943  -0.01277   0.00000  -0.04569  -0.04668   1.85274
   A51        1.92396  -0.02114   0.00000  -0.07909  -0.08038   1.84358
   A52        1.89258  -0.00967   0.00000  -0.03124  -0.03236   1.86022
    D1       -3.14133   0.00003   0.00000   0.00077   0.00077  -3.14055
    D2        1.03523  -0.00010   0.00000  -0.00340  -0.00340   1.03183
    D3       -1.03245   0.00020   0.00000   0.00428   0.00429  -1.02816
    D4        1.05572  -0.00037   0.00000  -0.00396  -0.00399   1.05173
    D5       -1.05090  -0.00051   0.00000  -0.00813  -0.00816  -1.05907
    D6       -3.11858  -0.00020   0.00000  -0.00044  -0.00048  -3.11906
    D7       -1.05217   0.00031   0.00000   0.00404   0.00408  -1.04809
    D8        3.12439   0.00018   0.00000  -0.00013  -0.00010   3.12429
    D9        1.05671   0.00048   0.00000   0.00756   0.00759   1.06430
   D10       -3.12622  -0.00030   0.00000  -0.00421  -0.00421  -3.13043
   D11        1.05041  -0.00015   0.00000  -0.00469  -0.00465   1.04576
   D12       -1.02820   0.00009   0.00000   0.00304   0.00300  -1.02519
   D13       -1.02660   0.00085   0.00000   0.00902   0.00900  -1.01760
   D14       -3.13315   0.00100   0.00000   0.00854   0.00856  -3.12459
   D15        1.07143   0.00124   0.00000   0.01627   0.01622   1.08764
   D16        1.05249  -0.00119   0.00000  -0.01474  -0.01473   1.03776
   D17       -1.05407  -0.00104   0.00000  -0.01522  -0.01516  -1.06923
   D18       -3.13267  -0.00080   0.00000  -0.00749  -0.00751  -3.14018
   D19        3.13420   0.00016   0.00000   0.00273   0.00271   3.13691
   D20        0.00210   0.00007   0.00000   0.00073   0.00073   0.00283
   D21       -1.04342   0.00118   0.00000   0.01227   0.01227  -1.03115
   D22        2.10767   0.00109   0.00000   0.01028   0.01029   2.11796
   D23        1.03593  -0.00122   0.00000  -0.01232  -0.01232   1.02361
   D24       -2.09617  -0.00131   0.00000  -0.01431  -0.01430  -2.11047
   D25        0.00868   0.00026   0.00000   0.00486   0.00486   0.01354
   D26       -3.12016  -0.00045   0.00000  -0.00932  -0.00935  -3.12951
   D27        3.14077   0.00031   0.00000   0.00665   0.00667  -3.13574
   D28        0.01193  -0.00039   0.00000  -0.00754  -0.00754   0.00439
   D29        3.13001   0.00034   0.00000   0.00721   0.00720   3.13721
   D30        0.01064   0.00034   0.00000   0.00620   0.00618   0.01682
   D31        0.00144  -0.00040   0.00000  -0.00732  -0.00731  -0.00586
   D32       -3.11793  -0.00040   0.00000  -0.00833  -0.00832  -3.12625
   D33        0.08175  -0.00016   0.00000  -0.00380  -0.00383   0.07792
   D34       -3.05770  -0.00029   0.00000  -0.00632  -0.00628  -3.06398
   D35       -3.08201  -0.00005   0.00000  -0.00221  -0.00225  -3.08426
   D36        0.06172  -0.00019   0.00000  -0.00473  -0.00470   0.05702
   D37       -3.13603  -0.00037   0.00000  -0.00757  -0.00756   3.13959
   D38        0.00929  -0.00032   0.00000  -0.00667  -0.00671   0.00258
   D39        0.00341  -0.00025   0.00000  -0.00510  -0.00510  -0.00168
   D40       -3.13445  -0.00021   0.00000  -0.00420  -0.00424  -3.13869
   D41        3.13184   0.00025   0.00000   0.00562   0.00563   3.13747
   D42       -0.00199   0.00021   0.00000   0.00480   0.00483   0.00284
   D43       -0.00776   0.00015   0.00000   0.00333   0.00333  -0.00442
   D44       -3.14159   0.00010   0.00000   0.00251   0.00254  -3.13905
   D45        0.00128   0.00005   0.00000   0.00064   0.00060   0.00188
   D46        3.14015   0.00033   0.00000   0.00634   0.00632  -3.13672
   D47        3.13941  -0.00003   0.00000  -0.00038  -0.00043   3.13898
   D48       -0.00491   0.00026   0.00000   0.00532   0.00529   0.00038
   D49        0.00741   0.00012   0.00000   0.00284   0.00290   0.01031
   D50       -3.13374   0.00000   0.00000   0.00031   0.00035  -3.13338
   D51        3.14138   0.00015   0.00000   0.00359   0.00363  -3.13818
   D52        0.00023   0.00004   0.00000   0.00106   0.00108   0.00131
   D53       -0.00250  -0.00037   0.00000  -0.00755  -0.00751  -0.01001
   D54       -3.13440   0.00008   0.00000   0.00199   0.00199  -3.13240
   D55        3.13865  -0.00025   0.00000  -0.00500  -0.00495   3.13369
   D56        0.00675   0.00020   0.00000   0.00453   0.00455   0.01130
   D57       -0.00179   0.00028   0.00000   0.00578   0.00576   0.00397
   D58       -3.14065  -0.00001   0.00000   0.00006   0.00001  -3.14064
   D59        3.13014  -0.00017   0.00000  -0.00370  -0.00368   3.12646
   D60       -0.00871  -0.00046   0.00000  -0.00943  -0.00943  -0.01815
   D61       -1.38940  -0.00127   0.00000  -0.03616  -0.03615  -1.42555
   D62        1.76192  -0.00081   0.00000  -0.02659  -0.02660   1.73532
   D63        1.23709  -0.00206   0.00000  -0.04173  -0.04155   1.19554
   D64       -2.96841  -0.00206   0.00000  -0.04158  -0.04168  -3.01009
   D65       -0.89372   0.00069   0.00000  -0.02648  -0.02657  -0.92028
         Item               Value     Threshold  Converged?
 Maximum Force            0.041497     0.000450     NO 
 RMS     Force            0.008637     0.000300     NO 
 Maximum Displacement     0.289698     0.001800     NO 
 RMS     Displacement     0.074089     0.001200     NO 
 Predicted change in Energy=-1.580873D-02
 GradGradGradGradGradGradGradGradGradGradGradGradGradGradGradGradGradGrad

                          Input orientation:                          
 ---------------------------------------------------------------------
 Center     Atomic      Atomic             Coordinates (Angstroms)
 Number     Number       Type             X           Y           Z
 ---------------------------------------------------------------------
      1          6           0       -1.674195    1.838671    0.277955
      2          6           0       -0.294419    1.192365    0.145818
      3          6           0        0.805778    2.245704    0.085404
      4          7           0        2.101551    1.609855   -0.054758
      5          6           0        3.236339    2.363938   -0.134836
      6          8           0        3.212540    3.589470   -0.078627
      7          7           0        4.394698    1.628045   -0.280872
      8          6           0        5.697022    2.129870   -0.393246
      9          6           0        6.012662    3.486374   -0.281094
     10          6           0        6.715663    1.200183   -0.629991
     11          6           0        8.034883    1.610471   -0.759850
     12          6           0        8.354053    2.962406   -0.641458
     13          6           0        7.339500    3.890324   -0.405229
     14          1           0       -2.456356    1.074892    0.321545
     15          1           0       -1.885033    2.489015   -0.577657
     16          1           0       -1.739263    2.441563    1.189920
     17          1           0       -0.261818    0.580421   -0.765956
     18          1           0       -0.115341    0.528158    1.002180
     19          1           0        0.796409    2.853765    0.998044
     20          1           0        0.637610    2.917080   -0.765667
     21          1           0        2.143734    0.599441   -0.098244
     22          1           0        4.319828    0.619296   -0.331624
     23          1           0        5.247421    4.226947   -0.095768
     24          1           0        6.478695    0.142860   -0.721004
     25          1           0        8.812182    0.877670   -0.950904
     26         16           0       10.046563    3.513952   -0.819450
     27          6           0       10.615175    3.134368    0.860211
     28          9           0       10.680249    1.819220    1.125662
     29          9           0       11.853163    3.614655    1.048104
     30          9           0        9.850055    3.660377    1.826713
     31          1           0        7.581964    4.943962   -0.313083
 ---------------------------------------------------------------------
                    Distance matrix (angstroms):
                    1          2          3          4          5
     1  C    0.000000
     2  C    1.529364   0.000000
     3  C    2.520519   1.524337   0.000000
     4  N    3.797277   2.440328   1.450164   0.000000
     5  C    4.955769   3.730630   2.443381   1.364844   0.000000
     6  O    5.203136   4.253851   2.761362   2.270186   1.227051
     7  N    6.098205   4.728604   3.660055   2.304339   1.380094
     8  C    7.407439   6.088256   4.915973   3.648616   2.485261
     9  C    7.881322   6.724879   5.365187   4.343886   2.998203
    10  C    8.462963   7.052885   6.044141   4.667842   3.702053
    11  C    9.767053   8.388821   7.306021   5.975081   4.897385
    12  C   10.132811   8.862782   7.616984   6.423970   5.177434
    13  C    9.269451   8.115377   6.755369   5.723589   4.386216
    14  H    1.094091   2.172246   3.473915   4.604596   5.854631
    15  H    1.095204   2.175953   2.781963   4.115726   5.142003
    16  H    1.095168   2.176746   2.781286   4.122234   5.149527
    17  H    2.160499   1.098576   2.153541   2.674144   3.976977
    18  H    2.161474   1.098452   2.153811   2.683616   3.987061
    19  H    2.766374   2.162509   1.096695   2.087846   2.734339
    20  H    2.756185   2.161972   1.096973   2.087427   2.730807
    21  H    4.031600   2.521054   2.129327   1.012229   2.075711
    22  H    6.147095   4.674145   3.894568   2.445121   2.063116
    23  H    7.331596   6.322898   4.866862   4.092353   2.741674
    24  H    8.387092   6.908539   6.103625   4.664263   3.973620
    25  H   10.601780   9.177800   8.188282   6.809680   5.827949
    26  S   11.890628  10.642246   9.371196   8.205702   6.940488
    27  C   12.371195  11.104097   9.879996   8.697305   7.485379
    28  F   12.383508  11.036139   9.938270   8.662060   7.569502
    29  F   13.665163  12.419555  11.173430  10.016460   8.787110
    30  F   11.769690  10.574821   9.318390   8.233097   7.019235
    31  H    9.781034   8.736273   7.304525   6.420119   5.056951
                    6          7          8          9         10
     6  O    0.000000
     7  N    2.299041   0.000000
     8  C    2.898632   1.400180   0.000000
     9  C    2.809325   2.463980   1.397251   0.000000
    10  C    4.276046   2.385756   1.399284   2.417149   0.000000
    11  C    5.256948   3.671605   2.422761   2.799571   1.387639
    12  C    5.210100   4.193690   2.795449   2.426214   2.406218
    13  C    4.150781   3.715539   2.407711   1.392510   2.770658
    14  H    6.214469   6.899697   8.252362   8.826250   9.222096
    15  H    5.238825   6.345421   7.592796   7.965944   8.696884
    16  H    5.239013   6.360072   7.609330   7.959137   8.737212
    17  H    4.647360   4.797495   6.168263   6.931720   7.006270
    18  H    4.649147   4.816267   6.188397   6.924613   7.055368
    19  H    2.745573   4.010698   5.145457   5.407928   6.357862
    20  H    2.748526   4.001543   5.133814   5.426794   6.317347
    21  H    3.175376   2.481576   3.880090   4.830779   4.641786
    22  H    3.179942   1.012796   2.045066   3.329921   2.483239
    23  H    2.132466   2.741476   2.165263   1.080919   3.406233
    24  H    4.791611   2.596639   2.160242   3.404378   1.087368
    25  H    6.282573   4.530583   3.403412   3.884752   2.145319
    26  S    6.874474   5.982499   4.584303   4.069759   4.060088
    27  C    7.475797   6.501186   5.173819   4.754957   4.600866
    28  F    7.768576   6.443837   5.218825   5.152158   4.379894
    29  F    8.713813   7.832082   6.494625   5.991217   5.919425
    30  F    6.905936   6.191382   4.951601   4.381633   4.681064
[...]
 31890,0.03157533,-0.03652579,-0.00993530,0.00482897,0.00002525,0.00000
 297,-0.00000130,-0.00000254,-0.00000797,0.00000229,-0.00000258,-0.0000
 0588,-0.00000340,-0.00000714,0.00000201,0.00000182,-0.00000177,0.00000
 392,0.00000093,0.00006780,-0.00002232,-0.00002526,0.00001895,-0.000011
 22,-0.00000097,-0.00003966,-0.00011716,-0.00004331,0.00009926,-0.00018
 609,-0.00004936,-0.00083111,-0.00075572,-0.00011992,-0.00090118,-0.000
 03982,-0.00005568,0.00120385,0.00106433,-0.00034711,0.25433368,0.00000
 417,0.00001938,0.00000201,0.00000081,-0.00003522,-0.00000798,-0.000115
 15,0.00005640,-0.00001247,0.00039892,0.00017166,0.00002927,-0.00090165
 ,0.00025721,0.00023853,0.00021004,-0.00010170,-0.00003984,0.00134229,0
 .00065008,-0.00009699,-0.00042098,-0.00257874,-0.00004252,0.00318711,0
 .00125831,-0.00024742,-0.00034588,-0.00376469,-0.00238292,-0.02857484,
 -0.00592959,0.00387529,-0.03246539,-0.05016154,0.01056548,0.00811831,0
 .00741439,-0.00069812,0.00001505,0.00000254,-0.00000049,-0.00000288,-0
 .00000415,0.00000026,-0.00000201,-0.00000375,-0.00000087,-0.00000138,0
 .00000213,0.00000256,0.00000034,0.00000534,-0.00000162,0.00002966,-0.0
 0001501,-0.00001037,0.00000299,-0.00000584,-0.00000266,-0.00000689,-0.
 00005576,-0.00002955,0.00019274,-0.00006835,-0.00007710,0.00035575,0.0
 0021218,-0.00010664,-0.00115027,-0.00017220,-0.00001770,-0.00055332,0.
 00087656,0.00113373,0.05352656,0.08734985,-0.00000625,-0.00003498,-0.0
 0000620,-0.00000930,0.00005949,0.00001459,0.00020958,-0.00012831,0.000
 01866,-0.00069535,-0.00019251,0.00005059,0.00150639,-0.00081174,-0.000
 36196,-0.00024863,0.00046628,0.00002670,-0.00220543,0.00010190,-0.0004
 5963,0.00117290,0.00012888,-0.00069704,0.00065572,-0.00150591,0.005504
 48,-0.00059257,-0.00071948,0.00525000,-0.00232022,0.00066396,0.0016584
 7,0.01230857,0.00527358,-0.04569609,0.00407633,0.00077647,0.00064221,-
 0.00002573,-0.00000422,0.00000075,0.00000393,0.00000827,-0.00000142,0.
 00000244,0.00000812,0.00000499,0.00000481,-0.00000300,-0.00000018,-0.0
 0000025,-0.00000755,-0.00000054,-0.00005798,0.00002870,0.00002166,-0.0
 0000071,0.00001751,0.00000056,0.00002050,0.00007517,0.00003492,0.00000
 961,0.00004582,0.00001179,0.00004617,0.00003091,0.00025428,-0.00020219
 ,-0.00019537,0.00030307,-0.00048233,0.00035325,-0.00272625,0.00346244,
 -0.03324218,0.24496948,0.00000981,0.00006217,0.00000701,0.00000405,-0.
 00009648,-0.00002228,-0.00037819,0.00019262,-0.00000274,0.00110797,0.0
 0039802,0.00008488,-0.00199856,0.00010452,0.00019345,0.00073719,-0.000
 03320,-0.00003706,0.00155529,-0.00012169,-0.00026425,-0.00117438,-0.00
 053655,-0.00023671,-0.00039346,0.00003784,0.00190740,-0.00018805,-0.00
 004290,0.00100805,-0.00027029,0.00061174,-0.00040548,-0.01675693,0.000
 49853,-0.01942529,-0.00105902,-0.00165000,-0.00087813,0.00005597,0.000
 01620,-0.00000013,-0.00001051,-0.00001866,0.00000187,-0.00001002,-0.00
 001630,-0.00000589,-0.00000658,0.00000736,0.00000611,0.00000150,0.0000
 1133,-0.00000026,0.00006339,-0.00004582,-0.00003138,-0.00000083,-0.000
 02188,-0.00000890,-0.00006825,-0.00011683,-0.00006471,-0.00004519,-0.0
 0004442,-0.00004829,-0.00023751,0.00001283,0.00007418,0.00011907,0.000
 11100,0.00008011,0.00001057,-0.00032035,-0.00048497,-0.03669499,-0.002
 21516,-0.00279965,0.53516903,-0.00000688,-0.00000168,0.00000428,0.0000
 0819,0.00002254,-0.00001359,-0.00001422,0.00002632,0.00002642,-0.00010
 026,-0.00017268,-0.00002600,0.00009156,0.00046394,-0.00013616,-0.00005
 077,-0.00034673,-0.00000331,-0.00036301,-0.00043344,0.00013391,0.00032
 694,-0.00000202,-0.00026919,0.00049537,-0.00046600,-0.00097265,-0.0009
 5145,-0.00159753,0.00204593,-0.00338452,0.00132837,0.00016572,-0.00028
 895,-0.00402600,-0.00802805,0.00041439,0.00085108,0.00039653,-0.000005
 51,-0.00000266,-0.00000204,0.00000547,-0.00000473,0.00000891,0.0000030
 0,0.00000329,-0.00000830,-0.00000284,-0.00000294,-0.00000957,-0.000000
 55,-0.00001494,0.00001686,0.00000092,0.00000536,-0.00001622,0.00000864
 ,-0.00000233,0.00000961,-0.00002890,0.00003847,0.00001659,-0.00011665,
 0.00005651,-0.00001493,0.00005451,-0.00000057,0.00003141,-0.00032878,-
 0.00015886,-0.00001459,-0.00041076,-0.00070303,-0.00246379,0.00094943,
 -0.03086928,0.01938680,0.00810675,0.51418492,0.00001844,0.00010662,0.0
 0002536,0.00003580,-0.00018574,-0.00002371,-0.00064066,0.00040222,0.00
 009165,0.00212975,0.00059463,-0.00006032,-0.00440068,0.00176396,0.0008
 4806,0.00121083,-0.00097200,-0.00035036,0.00573171,0.00002646,-0.00092
 886,-0.00334351,-0.00120417,0.00085403,0.00193729,-0.00004910,-0.00165
 846,0.00166091,0.00078817,-0.00094574,0.00514425,0.00008107,-0.0014842
 3,-0.01554807,-0.00711112,0.00816817,0.00507921,0.00390636,-0.00087598
 ,0.00007821,0.00000979,0.00000055,-0.00001371,-0.00001393,0.00000009,-
 0.00000318,-0.00003075,-0.00002598,-0.00002338,-0.00000575,-0.00001593
 ,0.00000131,0.00004073,-0.00000588,0.00017113,-0.00010401,-0.00010168,
 0.00000456,-0.00002986,-0.00002002,-0.00006669,-0.00019351,0.00000555,
 0.00001119,-0.00016462,0.00015683,0.00047282,0.00028490,0.00009891,0.0
 0086551,0.00048745,0.00008880,-0.00045158,-0.00063548,0.00100440,-0.01
 963321,0.01460202,-0.13417134,-0.01303414,-0.00013190,0.49865845,-0.00
 000202,-0.00001570,-0.00000169,-0.00000279,0.00002455,0.00000550,0.000
 09239,-0.00005068,-0.00000105,-0.00027305,-0.00008711,-0.00001871,0.00
 051864,-0.00009999,-0.00005109,-0.00016386,0.00005527,0.00001420,-0.00
 045934,0.00002674,0.00003546,0.00028783,0.00050499,0.00012343,-0.00031
 336,-0.00030678,-0.00009314,0.00045715,0.00007833,-0.00016969,-0.00034
 816,0.00014912,-0.00042924,0.00099427,0.00005331,-0.00012165,0.0008288
 6,0.00000049,-0.00007610,-0.00001291,-0.00000336,0.00000024,0.00000230
 ,0.00000472,-0.00000073,0.00000208,0.00000386,0.00000186,0.00000179,-0
 .00000169,-0.00000105,0.00000011,-0.00000244,-0.00000033,-0.00001697,0
 .00001088,0.00000851,-0.00000122,0.00000566,0.00000182,0.00001900,0.00
 002946,0.00001517,0.00001664,0.00001300,0.00001201,0.00004674,-0.00001
 025,0.00000653,-0.00002060,-0.00002517,-0.00000752,0.00000177,0.000107
 89,0.00029946,0.00493115,0.00536433,-0.00638014,-0.07256099,-0.0107289
 7,0.00213359,0.08058790,0.00000569,0.00001264,0.00000051,0.00000025,-0
 .00003354,0.00000578,-0.00006240,0.00003026,0.00000446,0.00029229,0.00
 015735,0.00000564,-0.00055859,-0.00003130,0.00013348,0.00016099,0.0000
 7083,-0.00003931,0.00089002,0.00022129,-0.00021493,-0.00073956,0.00030
 819,0.00026972,-0.00033891,-0.00003614,0.00001766,0.00129790,0.0006336
 0,-0.00033135,0.00085287,-0.00114489,-0.00110548,-0.00322046,0.0003834
 7,-0.00090271,0.00120064,0.00026150,-0.00021074,0.00001134,0.00000221,
 0.00000124,-0.00000471,0.00000178,-0.00000498,-0.00000170,-0.00000549,
 0.00000081,-0.00000139,-0.00000006,0.00000262,0.00000023,0.00001365,-0
 .00001039,0.00001973,-0.00001478,-0.00000423,-0.00000439,-0.00000125,-
 0.00000748,0.00000916,-0.00004195,-0.00000548,0.00007019,-0.00006143,0
 .00006649,0.00005165,0.00003507,0.00000016,0.00025828,0.00011605,0.000
 09700,0.00003053,0.00030888,0.00100252,0.00029910,-0.01270244,0.020929
 58,-0.01249765,-0.25372307,0.07567526,0.03101836,0.37797564,-0.0000061
 2,-0.00002832,-0.00000601,-0.00000855,0.00005425,0.00000132,0.00016471
 ,-0.00010074,-0.00002294,-0.00057631,-0.00018740,0.00001280,0.00116119
 ,-0.00034447,-0.00022242,-0.00032554,0.00016811,0.00009956,-0.00153072
 ,-0.00007803,0.00029230,0.00100286,0.00017175,-0.00020491,-0.00030766,
 -0.00016330,0.00028015,-0.00081868,-0.00019247,0.00002179,-0.00091242,
 0.00052195,0.00040769,0.00359231,0.00006839,0.00083555,-0.00089443,-0.
 00074503,0.00014226,-0.00002158,-0.00000309,-0.00000069,0.00000500,0.0
 0000227,0.00000207,0.00000128,0.00000923,0.00000573,0.00000577,0.00000
 141,0.00000299,-0.00000033,-0.00001473,0.00000543,-0.00004479,0.000028
 89,0.00002424,0.00000051,0.00000681,0.00000765,0.00001284,0.00005743,-
 0.00000175,-0.00002282,0.00006021,-0.00007324,-0.00007545,-0.00005059,
 -0.00002928,-0.00024858,-0.00012754,-0.00012357,0.00010869,0.00010064,
 -0.00024773,-0.00316956,0.03261759,-0.02738665,0.00446103,0.09019502,-
 0.11011792,-0.01457505,-0.09922803,0.10843403,-0.00001015,-0.00006557,
 -0.00000777,-0.00001181,0.00010506,0.00002549,0.00039553,-0.00021864,0
 .00000087,-0.00123138,-0.00037254,-0.00005145,0.00253584,-0.00088870,-
 0.00035879,-0.00066552,0.00049362,0.00006405,-0.00305366,0.00000906,0.
 00030206,0.00210257,0.00074006,-0.00025215,-0.00053321,-0.00084855,0.0
 0043511,-0.00096155,0.00026288,0.00062995,-0.00031211,0.00131383,-0.00
 013764,-0.00079520,0.00017249,-0.00653647,0.00066087,-0.00101294,-0.00
 049751,-0.00005339,-0.00001206,0.00000108,0.00000848,0.00001776,-0.000
 00319,0.00000740,0.00001538,0.00000815,0.00000936,-0.00000579,-0.00000
 260,-0.00000089,-0.00001140,-0.00000192,-0.00008612,0.00004943,0.00004
 079,-0.00000647,0.00002374,0.00000737,0.00006480,0.00013242,0.00006009
 ,0.00001226,0.00009630,0.00003883,0.00003401,-0.00006524,0.00008149,-0
 .00017118,-0.00015741,0.00008334,-0.00001496,0.00013703,-0.00014211,-0
 .02760970,-0.00713265,-0.00943425,-0.28460591,-0.05356523,-0.03482446,
 -0.02226629,-0.04107426,0.00857041,0.40114816,-0.00000074,-0.00001132,
 -0.00000235,-0.00000331,0.00001492,0.00000681,0.00007244,-0.00004330,-
 0.00000112,-0.00020170,-0.00004100,-0.00000675,0.00043535,-0.00022334,
 -0.00005066,-0.00011570,0.00013810,0.00001076,-0.00049187,0.00005574,0
 .00003416,0.00034700,0.00005277,-0.00002161,-0.00011276,0.00005031,0.0
 0020196,-0.00016952,0.00038824,-0.00009710,0.00095293,0.00006109,-0.00
 005931,-0.00114026,0.00293062,-0.00000032,-0.00039109,-0.00052407,-0.0
 0018013,-0.00000853,-0.00000170,0.00000053,0.00000061,0.00000396,-0.00
 000206,0.00000082,0.00000215,0.00000275,0.00000199,-0.00000067,0.00000
 103,-0.00000003,0.00000045,-0.00000307,-0.00001527,0.00000778,0.000009
 67,-0.00000255,0.00000458,-0.00000030,0.00001569,0.00001801,0.00000873
 ,0.00001467,0.00000809,0.00001314,-0.00002058,-0.00002499,0.00000976,0
 .00005611,0.00000380,0.00001463,0.00008033,0.00009647,0.00025196,-0.00
 318478,0.00345790,-0.00177473,-0.05191382,-0.08377176,-0.00743428,-0.0
 5652382,-0.03624816,0.00544962,0.08745286,0.10123947,-0.00000655,-0.00
 003864,-0.00000741,-0.00001044,0.00006518,0.00001208,0.00023119,-0.000
 13793,-0.00001394,-0.00075626,-0.00021571,0.00000053,0.00159973,-0.000
 66165,-0.00027733,-0.00040795,0.00036701,0.00008201,-0.00212226,-0.000
 02899,0.00024427,0.00142437,0.00046085,-0.00032117,-0.00063571,-0.0002
 5511,0.00075996,-0.00079307,-0.00012878,0.00069355,-0.00097229,0.00097
 406,0.00010627,-0.00000945,0.00194535,-0.00661901,-0.00069597,-0.00159
 986,-0.00030624,-0.00002932,-0.00000471,0.00000026,0.00000469,0.000007
 42,-0.00000092,0.00000246,0.00000987,0.00000710,0.00000724,-0.00000057
 ,0.00000230,-0.00000057,-0.00001083,0.00000063,-0.00005883,0.00003342,
 0.00003066,-0.00000312,0.00001250,0.00000572,0.00002952,0.00007566,0.0
 0001681,-0.00000453,0.00006547,-0.00001548,-0.00011280,-0.00009491,0.0
 0004407,-0.00022360,-0.00014212,0.00004787,0.00006433,0.00002635,-0.00
 040992,-0.03034646,-0.00768293,-0.00085602,-0.04414006,-0.01012165,-0.
 08309138,0.01866158,0.01335351,0.01159133,0.01835130,0.00596602,0.0731
 7056,-0.00000196,-0.00000916,0.00000087,0.00000333,0.00001404,0.000003
 04,0.00004695,-0.00001450,0.00001838,-0.00012963,-0.00008202,-0.000031
 31,0.00017919,0.00019224,0.00003671,-0.00010840,-0.00012358,-0.0000463
 8,0.00004738,0.00000902,-0.00004625,0.00024349,-0.00040320,0.00001797,
 0.00083604,0.00024537,-0.00030049,-0.00043434,-0.00006914,0.00002883,0
 .00096812,0.00061044,-0.00008845,-0.00021237,-0.00023826,-0.00053211,0
 .00001739,0.00058377,-0.00055172,-0.00000956,-0.00000422,-0.00000003,0
 .00000241,0.00000414,0.00000024,0.00000292,0.00000213,-0.00000202,-0.0
 0000087,-0.00000372,-0.00000491,-0.00000045,-0.00000098,0.00000143,-0.
 00000235,0.00000346,-0.00000419,0.00000197,0.00000445,0.00000133,0.000
 00969,0.00002004,0.00002578,0.00000107,0.00000431,0.00002499,0.0001203
 7,0.00001675,0.00003013,0.00003272,0.00000527,0.00000591,-0.00002678,-
 0.00013472,-0.00003461,0.00442027,0.00018761,0.00227086,-0.12175719,0.
 05915363,0.06567545,0.00759575,0.02235398,0.00422463,-0.06469189,0.024
 95583,0.04094912,0.17267744,0.00000048,-0.00000962,-0.00000393,-0.0000
 0804,0.00001152,0.00000557,0.00006190,-0.00004727,-0.00002596,-0.00017
 541,0.00001030,0.00001704,0.00044763,-0.00043460,-0.00007903,-0.000088
 11,0.00027292,0.00006142,-0.00064240,0.00009686,0.00010186,0.00033846,
 0.00026106,-0.00003724,-0.00056885,0.00002303,0.00017003,0.00010096,0.
 00027501,-0.00012403,-0.00014640,-0.00019611,0.00004759,0.00143433,0.0
 0107356,0.00067921,-0.00006057,-0.00103511,0.00023434,-0.00000421,0.00
 000117,0.00000055,-0.00000069,0.00000177,-0.00000277,-0.00000139,0.000
 00190,0.00000601,0.00000368,0.00000263,0.00000590,0.00000055,-0.000000
 02,-0.00000436,-0.00001943,0.00000888,0.00001752,-0.00000477,0.0000021
 4,-0.00000078,0.00001446,0.00000708,-0.00001290,0.00002859,0.00000493,
 -0.00000388,-0.00009865,-0.00003416,-0.00003935,-0.00002665,-0.0000172
 3,0.00000929,0.00010730,0.00020358,0.00027583,0.00279207,0.00378778,-0
 .01030590,0.05869523,-0.14011066,-0.08029273,0.03042360,-0.07675729,-0
 .02814696,0.01451467,0.01235614,-0.00236828,-0.10689339,0.19994265,-0.
 00000490,-0.00003420,-0.00001038,-0.00001589,0.00005751,0.00000709,0.0
 0020214,-0.00013597,-0.00004763,-0.00066767,-0.00013993,0.00003594,0.0
 0144815,-0.00077168,-0.00030183,-0.00036880,0.00044347,0.00016110,-0.0
 0197725,0.00002199,0.00038479,0.00110249,0.00070247,-0.00024562,-0.001
 12625,-0.00025570,0.00006534,-0.00031921,0.00006436,0.00030360,-0.0013
 3126,-0.00002843,0.00029615,0.00392259,0.00206669,0.00155674,-0.000428
 64,-0.00155818,0.00038999,-0.00002202,-0.00000102,0.,0.00000323,0.0000
 0341,-0.00000144,-0.00000111,0.00000982,0.00001181,0.00000918,0.000004
 49,0.00000994,0.00000016,-0.00001290,-0.00000040,-0.00005955,0.0000346
 5,0.00004070,-0.00000491,0.00000783,0.00000544,0.00002438,0.00005215,-
 0.00002099,0.00001002,0.00004866,-0.00004982,-0.00017574,-0.00007318,-
 0.00013995,-0.00021498,-0.00013370,-0.00003303,0.00015817,0.00037010,-
 0.00024002,0.01248130,-0.01819897,-0.04345338,0.07532458,-0.09130454,-
 0.17775095,0.00053227,-0.00946970,0.01663311,0.02367044,-0.00221836,0.
 00556032,-0.11223441,0.12029165,0.19728539,-0.00000163,-0.00000943,-0.
 00000214,-0.00000874,0.00001538,0.00000708,0.00004978,-0.00004609,-0.0
 0000558,-0.00017258,0.00008822,0.00001785,0.00051329,-0.00054230,-0.00
 000831,-0.00004806,0.00038255,0.00001299,-0.00000828,-0.00147918,-0.00
 024912,-0.00516924,-0.00111694,0.00158632,-0.00273369,-0.02874709,-0.0
 0280171,-0.00118511,0.00029195,0.00009157,-0.00323068,0.00321358,0.001
 57387,0.00747561,0.02223756,0.00223732,-0.07405519,-0.06866461,-0.0041
 2642,-0.00000413,0.00000146,0.00000062,-0.00000108,0.00000179,-0.00000
 196,-0.00000057,0.00000044,0.00000208,0.00000217,-0.00000005,0.0000015
 3,0.00000113,0.00000145,-0.00000276,-0.00001564,0.00000655,0.00001069,
 -0.00000667,0.00000302,-0.00000204,0.00003061,0.00001870,-0.00002717,-
 0.00043684,-0.00013791,0.00003999,0.00091013,0.00030889,-0.00063394,0.
 00010149,-0.00003819,-0.00011056,0.00060754,0.00123972,0.00011249,0.00
 126147,0.00095178,-0.00028927,-0.00061699,0.00072945,-0.00037870,0.000
 05720,-0.00031920,0.00022736,0.00010206,-0.00009032,0.00000371,0.00016
 927,-0.00022493,0.00006346,0.07641335,-0.00000143,-0.00000704,-0.00000
 163,-0.00000375,0.00001144,0.00000447,0.00003788,-0.00002895,-0.000003
 07,-0.00013909,-0.00001336,0.00000498,0.00031626,-0.00020654,-0.000054
 76,-0.00006853,0.00011586,-0.00000501,-0.00019101,-0.00020083,-0.00000
 626,-0.00072688,0.00159454,-0.00071152,-0.00026129,-0.00293618,-0.0009
 7504,0.00026931,0.00069781,0.00017911,0.00375398,-0.00083453,-0.001382
 88,-0.00765017,-0.01624304,-0.00149100,-0.06638563,-0.33083720,-0.0278
 8012,-0.00000464,-0.00000035,0.00000025,0.00000041,0.00000149,-0.00000
 025,0.00000014,0.00000140,0.00000096,0.00000150,-0.00000040,0.00000029
 ,0.,-0.00000137,-0.00000048,-0.00001105,0.00000620,0.00000544,-0.00000
 267,0.00000328,0.00000155,0.00000910,0.00001273,-0.00000040,-0.0000547
 0,0.00001794,0.00004596,0.00002170,0.00058669,0.00068418,-0.00005335,-
 0.00008107,0.00009468,-0.00032286,-0.00078705,-0.00012594,-0.00076875,
 0.00094656,0.00057118,0.00082557,-0.00056991,-0.00021070,-0.00001862,0
 .00026938,-0.00010286,-0.00010563,-0.00000028,0.00012996,-0.00038961,0
 .00029717,0.00015720,0.07192378,0.34818563,0.00000006,-0.00000034,0.00
 000101,0.00000152,-0.00000086,0.00000086,0.00000314,0.00000199,0.00002
 390,-0.00000434,-0.00001444,-0.00002863,-0.00002288,0.00000987,0.00007
 113,-0.00006299,-0.00003212,0.00001420,-0.00006211,0.00010209,0.000007
 02,0.00164904,-0.00052576,0.00748988,0.00080307,0.00286576,0.00492773,
 0.00006428,0.00016888,-0.00083200,0.00160948,-0.00140604,0.00558353,-0
 .00108379,-0.00512842,0.00262270,-0.00386040,-0.02778085,-0.04227116,-
 0.00000039,-0.00000023,0.00000007,-0.00000046,0.00000137,-0.00000033,0
 .00000059,-0.00000051,-0.00000161,-0.00000086,-0.00000230,-0.00000170,
 -0.00000019,0.00000191,-0.00000094,0.00000171,-0.00000010,-0.00000385,
 -0.00000077,-0.00000045,-0.00000018,-0.00000295,-0.00000144,0.00000088
 ,0.00001641,0.00004501,-0.00023801,-0.00055240,0.00052398,-0.00445697,
 -0.00012453,0.00009213,-0.00073257,-0.00010987,-0.00028517,0.00030861,
 -0.00016900,-0.00016741,-0.00295049,-0.00125837,0.00109848,0.00162789,
 0.00007558,-0.00003162,-0.00036288,-0.00012052,-0.00012937,-0.00045746
 ,0.00056119,-0.00047573,-0.00045200,0.00265077,0.03107169,0.03011139\\
 0.00000152,-0.00000021,-0.00000036,-0.00000048,0.00000201,-0.00000044,
 0.00000550,-0.00000189,0.00000242,-0.00000320,-0.00000558,-0.00001420,
 -0.00000165,0.00002071,0.00000588,0.00000260,-0.00001609,0.00000032,0.
 00001597,0.00000928,-0.00000451,-0.00001414,-0.00001229,-0.00000170,0.
 00000245,0.00000273,-0.00000006,0.00000656,0.00000148,-0.00000100,-0.0
 0001025,0.00000142,0.00000698,0.00001681,-0.00000603,-0.00000454,-0.00
 000926,0.00000248,0.00000171,0.00000006,-0.00000129,-0.00000103,-0.000
 00029,0.00000064,-0.00000247,0.00000008,0.00000070,0.00000046,0.000000
 42,-0.00000089,-0.00000132,0.00000041,-0.00000089,0.00000238,-0.000001
 68,0.00000095,0.00000186,-0.00000011,-0.00000126,-0.00000297,-0.000002
 71,0.00000202,0.00000165,-0.00000205,-0.00000390,0.00000936,-0.0000003
 6,0.00000102,0.00000042,-0.00000013,-0.00000022,0.00000119,0.00000039,
 -0.00000090,-0.00000035,-0.00000534,0.,-0.00000528,-0.00000703,0.00000
 598,0.00001133,0.00000137,0.00000560,-0.00000070,0.00000840,-0.0000028
 3,-0.00000145,-0.00000346,-0.00000325,-0.00000073,-0.00000039,0.000000
 55,-0.00000286\\\@


 You don't have to suffer to be a poet.
 Adolescence is enough suffering for anyone.
                             -- John Ciardi
 Job cpu time:       0 days  2 hours 55 minutes 16.1 seconds.
 File lengths (MBytes):  RWF=    489 Int=      0 D2E=      0 Chk=     12 Scr=      1
 Normal termination of Gaussian 09 at Tue Oct 30 14:02:14 2018.
WARNING: pbs_rusage is deprecated and values produced may not be accurate


=============================================================================
                                     Resource usage:
                                       CPU time:              14:05:58
   JobId:    1828100.r-man2            Elapsed time:          03:54:46
   Project:             q95            Requested time:        36:00:00
   Service Units:     15.65 
                                       Max physical memory:      693MB
                                       Max virtual memory:      1516MB
                                       Requested memory:           0MB

                                       Number of cpus:               4

                                       Max jobfs disk use:       0.5GB
                                       Requested jobfs:         16.0GB
=============================================================================

