 Entering Gaussian System, Link 0=/apps/gaussian/g09e01/g09/g09
 AtFile(1): /home/507/hio507/Basis/6-31pGd.gbs
 Initial command:
 /apps/gaussian/g09e01/g09/l1.exe "/jobfs/local/5875481.r-man2/Gau-39814.inp" -scrdir="/jobfs/local/5875481.r-man2/"
 Entering Link 1 = /apps/gaussian/g09e01/g09/l1.exe PID=     39815.
  
 Copyright (c) 1988,1990,1992,1993,1995,1998,2003,2009,2015,
            Gaussian, Inc.  All Rights Reserved.
  
 This is part of the Gaussian(R) 09 program.  It is based on
 the Gaussian(R) 03 system (copyright 2003, Gaussian, Inc.),
 the Gaussian(R) 98 system (copyright 1998, Gaussian, Inc.),
 the Gaussian(R) 94 system (copyright 1995, Gaussian, Inc.),
 the Gaussian 92(TM) system (copyright 1992, Gaussian, Inc.),
 the Gaussian 90(TM) system (copyright 1990, Gaussian, Inc.),
 the Gaussian 88(TM) system (copyright 1988, Gaussian, Inc.),
 the Gaussian 86(TM) system (copyright 1986, Carnegie Mellon
 University), and the Gaussian 82(TM) system (copyright 1983,
 Carnegie Mellon University). Gaussian is a federally registered
 trademark of Gaussian, Inc.
  
 This software contains proprietary and confidential information,
 including trade secrets, belonging to Gaussian, Inc.
  
 This software is provided under written license and may be
 used, copied, transmitted, or stored only in accord with that
 written license.
  
 The following legend is applicable only to US Government
 contracts under FAR:
  
                    RESTRICTED RIGHTS LEGEND
  
 Use, reproduction and disclosure by the US Government is
 subject to restrictions as set forth in subparagraphs (a)
 and (c) of the Commercial Computer Software - Restricted
 Rights clause in FAR 52.227-19.
  
 Gaussian, Inc.
 340 Quinnipiac St., Bldg. 40, Wallingford CT 06492
  
  
 ---------------------------------------------------------------
 Warning -- This program may not be used in any manner that
 competes with the business of Gaussian, Inc. or will provide
 assistance to any competitor of Gaussian, Inc.  The licensee
 of this program is prohibited from giving any competitor of
 Gaussian, Inc. access to this program.  By using this program,
 the user acknowledges that Gaussian, Inc. is engaged in the
 business of creating and licensing software in the field of
 computational chemistry and represents and warrants to the
 licensee that it is not a competitor of Gaussian, Inc. and that
 it will not use this program in any manner prohibited above.
 ---------------------------------------------------------------
  

 Cite this work as:
 Gaussian 09, Revision E.01,
 M. J. Frisch, G. W. Trucks, H. B. Schlegel, G. E. Scuseria, 
 M. A. Robb, J. R. Cheeseman, G. Scalmani, V. Barone, B. Mennucci, 
 G. A. Petersson, H. Nakatsuji, M. Caricato, X. Li, H. P. Hratchian, 
 A. F. Izmaylov, J. Bloino, G. Zheng, J. L. Sonnenberg, M. Hada, 
 M. Ehara, K. Toyota, R. Fukuda, J. Hasegawa, M. Ishida, T. Nakajima, 
 Y. Honda, O. Kitao, H. Nakai, T. Vreven, J. A. Montgomery, Jr., 
 J. E. Peralta, F. Ogliaro, M. Bearpark, J. J. Heyd, E. Brothers, 
 K. N. Kudin, V. N. Staroverov, T. Keith, R. Kobayashi, J. Normand, 
 K. Raghavachari, A. Rendell, J. C. Burant, S. S. Iyengar, J. Tomasi, 
 M. Cossi, N. Rega, J. M. Millam, M. Klene, J. E. Knox, J. B. Cross, 
 V. Bakken, C. Adamo, J. Jaramillo, R. Gomperts, R. E. Stratmann, 
 O. Yazyev, A. J. Austin, R. Cammi, C. Pomelli, J. W. Ochterski, 
 R. L. Martin, K. Morokuma, V. G. Zakrzewski, G. A. Voth, 
 P. Salvador, J. J. Dannenberg, S. Dapprich, A. D. Daniels, 
 O. Farkas, J. B. Foresman, J. V. Ortiz, J. Cioslowski, 
 and D. J. Fox, Gaussian, Inc., Wallingford CT, 2013.
 
 ******************************************
 Gaussian 09:  ES64L-G09RevE.01 30-Nov-2015
                19-Feb-2019 
 ******************************************
 %chk=4SulfCF3_EtO.M062X_6-31pGd_opt_Pentadecane.chk
 %mem=196608000
 %nproc=8
 Will use up to    8 processors via shared memory.
 ----------------------------------------------------------------------
 # M062X/Gen 6D SCF=Tight INT(grid=ultrafine) OPT IOP(2/17=4) SCRF=(SMD
 ,Solvent=n-Pentadecane) maxdisk=2684354560
 ----------------------------------------------------------------------
 1/14=-1,18=20,19=15,26=4,38=1/1,3;
 2/9=110,12=2,17=4,18=5,40=1/2;
 3/5=7,8=2,11=2,16=1,25=1,30=1,70=32201,71=1,72=151,74=-55,75=-5/1,2,3;
 4//1;
 5/5=2,32=2,38=5,53=151/2;
 6/7=2,8=2,9=2,10=2,28=1/1;
 7//1,2,3,16;
 1/14=-1,18=20,19=15,26=4/3(2);
 2/9=110,17=4/2;
 99//99;
 2/9=110,17=4/2;
 3/5=7,6=1,8=2,11=2,16=1,25=1,30=1,70=32205,71=1,72=151,74=-55,75=-5,82=7/1,2,3;
 4/5=5,16=3,69=1/1;
 5/5=2,32=2,38=5,53=151/2;
 7//1,2,3,16;
 1/14=-1,18=20,19=15,26=4/3(-5);
 2/9=110,17=4/2;
 6/7=2,8=2,9=2,10=2,19=2,28=1/1;
 99/9=1/99;
 ------------------------------------------
 4SulfCF3_EtO.M062X_6-31pGd_opt_Pentadecane
 ------------------------------------------
 Symbolic Z-matrix:
 Charge = -1 Multiplicity = 1
 C                    -1.8063    2.56959   0.24396 
 C                    -0.49713   1.79117   0.1531 
 C                     0.70495   2.73634   0.05259 
 N                     1.95026   1.99242  -0.04408 
 C                     3.15349   2.62657  -0.15575 
 O                     3.18055   3.84656  -0.17267 
 N                     4.30487   1.88817  -0.2613 
 C                     5.65353   2.38305  -0.39939 
 C                     6.01405   3.7537   -0.34289 
 C                     6.68631   1.44433  -0.60541 
 C                     8.01535   1.84722  -0.75543 
 C                     8.34922   3.20016  -0.69738 
 C                     7.34752   4.14945  -0.49122 
 H                    -2.6572    1.85961   0.31379 
 H                    -1.94358   3.20081  -0.65988 
 H                    -1.80852   3.21789   1.14597 
 H                    -0.53018   1.13725  -0.74556 
 H                    -0.39369   1.15324   1.05771 
 H                     0.73549   3.38772   0.95383 
 H                     0.59013   3.37403  -0.85174 
 H                     1.91399   0.85202  -0.03245 
 H                     4.1794    0.74904  -0.25393 
 H                     5.30993   4.5485   -0.18292 
 H                     6.47042   0.38655  -0.65902 
 H                     8.78529   1.10352  -0.91775 
 S                     10.05626   3.72093  -0.89921 
 C                     10.49365   3.53875   0.86121 
 F                     10.41192   2.21141   1.23872 
 F                     11.79346   3.97141   1.03881 
 F                     9.66088   4.31276   1.64817 
 H                     7.60096   5.20136  -0.44538 
 O                     1.92218  -1.20384   0.23343 
 O                     4.13793  -1.30898   0.02683 
 C                     3.07946  -1.89694   0.21316 
 C                     3.04225  -3.38715   0.42331 
 C                     4.42588  -4.03531   0.37984 
 H                     2.40784  -3.84183  -0.36717 
 H                     2.58099  -3.59477   1.41239 
 H                     4.90225  -3.86302  -0.60894 
 H                     4.32886  -5.12963   0.54131 
 H                     5.07405  -3.61494   1.17836 
 
 Add virtual bond connecting atoms O32        and H21        Dist= 3.92D+00.
 Add virtual bond connecting atoms O33        and H22        Dist= 3.93D+00.

 GradGradGradGradGradGradGradGradGradGradGradGradGradGradGradGradGradGrad
 Berny optimization.
 Initialization pass.
                           ----------------------------
                           !    Initial Parameters    !
                           ! (Angstroms and Degrees)  !
 --------------------------                            --------------------------
 ! Name  Definition              Value          Derivative Info.                !
 --------------------------------------------------------------------------------
 ! R1    R(1,2)                  1.5258         estimate D2E/DX2                !
 ! R2    R(1,14)                 1.1104         estimate D2E/DX2                !
 ! R3    R(1,15)                 1.111          estimate D2E/DX2                !
 ! R4    R(1,16)                 1.1108         estimate D2E/DX2                !
 ! R5    R(2,3)                  1.5325         estimate D2E/DX2                !
 ! R6    R(2,17)                 1.1119         estimate D2E/DX2                !
 ! R7    R(2,18)                 1.1117         estimate D2E/DX2                !
 ! R8    R(3,4)                  1.4538         estimate D2E/DX2                !
 ! R9    R(3,19)                 1.1124         estimate D2E/DX2                !
 ! R10   R(3,20)                 1.1125         estimate D2E/DX2                !
 ! R11   R(4,5)                  1.3647         estimate D2E/DX2                !
 ! R12   R(4,21)                 1.141          estimate D2E/DX2                !
 ! R13   R(5,6)                  1.2204         estimate D2E/DX2                !
 ! R14   R(5,7)                  1.3719         estimate D2E/DX2                !
 ! R15   R(7,8)                  1.4432         estimate D2E/DX2                !
 ! R16   R(7,22)                 1.146          estimate D2E/DX2                !
 ! R17   R(8,9)                  1.4184         estimate D2E/DX2                !
 ! R18   R(8,10)                 1.4108         estimate D2E/DX2                !
 ! R19   R(9,13)                 1.3988         estimate D2E/DX2                !
 ! R20   R(9,23)                 1.0738         estimate D2E/DX2                !
 ! R21   R(10,11)                1.3968         estimate D2E/DX2                !
 ! R22   R(10,24)                1.0809         estimate D2E/DX2                !
 ! R23   R(11,12)                1.3947         estimate D2E/DX2                !
 ! R24   R(11,25)                1.0827         estimate D2E/DX2                !
 ! R25   R(12,13)                1.3954         estimate D2E/DX2                !
 ! R26   R(12,26)                1.7961         estimate D2E/DX2                !
 ! R27   R(13,31)                1.083          estimate D2E/DX2                !
 ! R28   R(21,32)                2.073          estimate D2E/DX2                !
 ! R29   R(22,33)                2.0775         estimate D2E/DX2                !
 ! R30   R(26,27)                1.8231         estimate D2E/DX2                !
 ! R31   R(27,28)                1.3824         estimate D2E/DX2                !
 ! R32   R(27,29)                1.3814         estimate D2E/DX2                !
 ! R33   R(27,30)                1.3827         estimate D2E/DX2                !
 ! R34   R(32,34)                1.3491         estimate D2E/DX2                !
 ! R35   R(33,34)                1.2251         estimate D2E/DX2                !
 ! R36   R(34,35)                1.5054         estimate D2E/DX2                !
 ! R37   R(35,36)                1.5285         estimate D2E/DX2                !
 ! R38   R(35,37)                1.1109         estimate D2E/DX2                !
 ! R39   R(35,38)                1.1109         estimate D2E/DX2                !
 ! R40   R(36,39)                1.111          estimate D2E/DX2                !
 ! R41   R(36,40)                1.1104         estimate D2E/DX2                !
 ! R42   R(36,41)                1.1111         estimate D2E/DX2                !
 ! A1    A(2,1,14)             109.5753         estimate D2E/DX2                !
 ! A2    A(2,1,15)             110.331          estimate D2E/DX2                !
 ! A3    A(2,1,16)             110.3537         estimate D2E/DX2                !
 ! A4    A(14,1,15)            108.6486         estimate D2E/DX2                !
 ! A5    A(14,1,16)            108.6972         estimate D2E/DX2                !
 ! A6    A(15,1,16)            109.1953         estimate D2E/DX2                !
 ! A7    A(1,2,3)              111.2407         estimate D2E/DX2                !
 ! A8    A(1,2,17)             108.824          estimate D2E/DX2                !
 ! A9    A(1,2,18)             108.9121         estimate D2E/DX2                !
 ! A10   A(3,2,17)             109.4532         estimate D2E/DX2                !
 ! A11   A(3,2,18)             109.5293         estimate D2E/DX2                !
 ! A12   A(17,2,18)            108.841          estimate D2E/DX2                !
 ! A13   A(2,3,4)              111.1416         estimate D2E/DX2                !
 ! A14   A(2,3,19)             109.2414         estimate D2E/DX2                !
 ! A15   A(2,3,20)             109.0195         estimate D2E/DX2                !
 ! A16   A(4,3,19)             109.268          estimate D2E/DX2                !
 ! A17   A(4,3,20)             109.1273         estimate D2E/DX2                !
 ! A18   A(19,3,20)            109.0117         estimate D2E/DX2                !
 ! A19   A(3,4,5)              121.527          estimate D2E/DX2                !
 ! A20   A(3,4,21)             118.9151         estimate D2E/DX2                !
 ! A21   A(5,4,21)             119.5568         estimate D2E/DX2                !
 ! A22   A(4,5,6)              119.0262         estimate D2E/DX2                !
 ! A23   A(4,5,7)              119.7463         estimate D2E/DX2                !
 ! A24   A(6,5,7)              121.2237         estimate D2E/DX2                !
 ! A25   A(5,7,8)              127.3791         estimate D2E/DX2                !
 ! A26   A(5,7,22)             116.2708         estimate D2E/DX2                !
 ! A27   A(8,7,22)             116.3439         estimate D2E/DX2                !
 ! A28   A(7,8,9)              124.4072         estimate D2E/DX2                !
 ! A29   A(7,8,10)             118.0287         estimate D2E/DX2                !
 ! A30   A(9,8,10)             117.5641         estimate D2E/DX2                !
 ! A31   A(8,9,13)             120.7612         estimate D2E/DX2                !
 ! A32   A(8,9,23)             123.6774         estimate D2E/DX2                !
 ! A33   A(13,9,23)            115.5608         estimate D2E/DX2                !
 ! A34   A(8,10,11)            121.3522         estimate D2E/DX2                !
 ! A35   A(8,10,24)            120.8092         estimate D2E/DX2                !
 ! A36   A(11,10,24)           117.8373         estimate D2E/DX2                !
 ! A37   A(10,11,12)           120.2036         estimate D2E/DX2                !
 ! A38   A(10,11,25)           119.6428         estimate D2E/DX2                !
 ! A39   A(12,11,25)           120.1536         estimate D2E/DX2                !
 ! A40   A(11,12,13)           119.6192         estimate D2E/DX2                !
 ! A41   A(11,12,26)           120.2711         estimate D2E/DX2                !
 ! A42   A(13,12,26)           120.108          estimate D2E/DX2                !
 ! A43   A(9,13,12)            120.499          estimate D2E/DX2                !
 ! A44   A(9,13,31)            119.5637         estimate D2E/DX2                !
 ! A45   A(12,13,31)           119.9373         estimate D2E/DX2                !
 ! A46   A(12,26,27)            95.1947         estimate D2E/DX2                !
 ! A47   A(26,27,28)           110.2102         estimate D2E/DX2                !
 ! A48   A(26,27,29)           108.5783         estimate D2E/DX2                !
 ! A49   A(26,27,30)           110.4352         estimate D2E/DX2                !
 ! A50   A(28,27,29)           108.7387         estimate D2E/DX2                !
 ! A51   A(28,27,30)           110.2703         estimate D2E/DX2                !
 ! A52   A(29,27,30)           108.5544         estimate D2E/DX2                !
 ! A53   A(21,32,34)           120.7279         estimate D2E/DX2                !
 ! A54   A(22,33,34)           120.8803         estimate D2E/DX2                !
 ! A55   A(32,34,33)           119.7936         estimate D2E/DX2                !
 ! A56   A(32,34,35)           119.0293         estimate D2E/DX2                !
 ! A57   A(33,34,35)           121.1771         estimate D2E/DX2                !
 ! A58   A(34,35,36)           113.167          estimate D2E/DX2                !
 ! A59   A(34,35,37)           108.6595         estimate D2E/DX2                !
 ! A60   A(34,35,38)           108.6358         estimate D2E/DX2                !
 ! A61   A(36,35,37)           108.8536         estimate D2E/DX2                !
 ! A62   A(36,35,38)           108.7787         estimate D2E/DX2                !
 ! A63   A(37,35,38)           108.6583         estimate D2E/DX2                !
 ! A64   A(35,36,39)           110.3456         estimate D2E/DX2                !
 ! A65   A(35,36,40)           109.5523         estimate D2E/DX2                !
 ! A66   A(35,36,41)           110.316          estimate D2E/DX2                !
 ! A67   A(39,36,40)           108.6455         estimate D2E/DX2                !
 ! A68   A(39,36,41)           109.3189         estimate D2E/DX2                !
 ! A69   A(40,36,41)           108.6222         estimate D2E/DX2                !
 ! A70   L(4,21,32,2,-1)       181.3405         estimate D2E/DX2                !
 ! A71   L(7,22,33,1,-1)       184.3596         estimate D2E/DX2                !
 ! A72   L(4,21,32,2,-2)       187.4071         estimate D2E/DX2                !
 ! A73   L(7,22,33,1,-2)       188.0684         estimate D2E/DX2                !
 ! D1    D(14,1,2,3)           179.9051         estimate D2E/DX2                !
 ! D2    D(14,1,2,17)           59.241          estimate D2E/DX2                !
 ! D3    D(14,1,2,18)          -59.2784         estimate D2E/DX2                !
 ! D4    D(15,1,2,3)            60.3221         estimate D2E/DX2                !
 ! D5    D(15,1,2,17)          -60.342          estimate D2E/DX2                !
 ! D6    D(15,1,2,18)         -178.8614         estimate D2E/DX2                !
 ! D7    D(16,1,2,3)           -60.4378         estimate D2E/DX2                !
 ! D8    D(16,1,2,17)          178.8981         estimate D2E/DX2                !
 ! D9    D(16,1,2,18)           60.3788         estimate D2E/DX2                !
 ! D10   D(1,2,3,4)           -179.567          estimate D2E/DX2                !
 ! D11   D(1,2,3,19)            59.7885         estimate D2E/DX2                !
 ! D12   D(1,2,3,20)           -59.2422         estimate D2E/DX2                !
 ! D13   D(17,2,3,4)           -59.2739         estimate D2E/DX2                !
 ! D14   D(17,2,3,19)         -179.9184         estimate D2E/DX2                !
 ! D15   D(17,2,3,20)           61.0509         estimate D2E/DX2                !
 ! D16   D(18,2,3,4)            59.9799         estimate D2E/DX2                !
 ! D17   D(18,2,3,19)          -60.6646         estimate D2E/DX2                !
 ! D18   D(18,2,3,20)         -179.6954         estimate D2E/DX2                !
 ! D19   D(2,3,4,5)            179.3905         estimate D2E/DX2                !
 ! D20   D(2,3,4,21)            -0.2165         estimate D2E/DX2                !
 ! D21   D(19,3,4,5)           -59.9806         estimate D2E/DX2                !
 ! D22   D(19,3,4,21)          120.4123         estimate D2E/DX2                !
 ! D23   D(20,3,4,5)            59.1296         estimate D2E/DX2                !
 ! D24   D(20,3,4,21)         -120.4775         estimate D2E/DX2                !
 ! D25   D(3,4,5,6)              0.1001         estimate D2E/DX2                !
 ! D26   D(3,4,5,7)           -179.1923         estimate D2E/DX2                !
 ! D27   D(21,4,5,6)           179.7047         estimate D2E/DX2                !
 ! D28   D(21,4,5,7)             0.4124         estimate D2E/DX2                !
 ! D29   D(3,4,32,34)         -176.6273         estimate D2E/DX2                !
 ! D30   D(5,4,32,34)           -1.245          estimate D2E/DX2                !
 ! D31   D(4,5,7,8)            179.3466         estimate D2E/DX2                !
 ! D32   D(4,5,7,22)             0.2952         estimate D2E/DX2                !
 ! D33   D(6,5,7,8)              0.0703         estimate D2E/DX2                !
 ! D34   D(6,5,7,22)          -178.9811         estimate D2E/DX2                !
 ! D35   D(5,7,8,9)              5.1998         estimate D2E/DX2                !
 ! D36   D(5,7,8,10)          -174.7603         estimate D2E/DX2                !
 ! D37   D(22,7,8,9)          -175.7493         estimate D2E/DX2                !
 ! D38   D(22,7,8,10)            4.2905         estimate D2E/DX2                !
 ! D39   D(5,7,33,34)            0.836          estimate D2E/DX2                !
 ! D40   D(8,7,33,34)          176.6562         estimate D2E/DX2                !
 ! D41   D(7,8,9,13)          -179.7767         estimate D2E/DX2                !
 ! D42   D(7,8,9,23)             0.5345         estimate D2E/DX2                !
 ! D43   D(10,8,9,13)            0.1837         estimate D2E/DX2                !
 ! D44   D(10,8,9,23)         -179.5051         estimate D2E/DX2                !
 ! D45   D(7,8,10,11)          179.6444         estimate D2E/DX2                !
 ! D46   D(7,8,10,24)            0.0762         estimate D2E/DX2                !
 ! D47   D(9,8,10,11)           -0.3185         estimate D2E/DX2                !
 ! D48   D(9,8,10,24)         -179.8867         estimate D2E/DX2                !
 ! D49   D(8,9,13,12)           -0.0265         estimate D2E/DX2                !
 ! D50   D(8,9,13,31)          179.9619         estimate D2E/DX2                !
 ! D51   D(23,9,13,12)         179.6864         estimate D2E/DX2                !
 ! D52   D(23,9,13,31)          -0.3252         estimate D2E/DX2                !
 ! D53   D(8,10,11,12)           0.2961         estimate D2E/DX2                !
 ! D54   D(8,10,11,25)        -179.6631         estimate D2E/DX2                !
 ! D55   D(24,10,11,12)        179.8767         estimate D2E/DX2                !
 ! D56   D(24,10,11,25)         -0.0825         estimate D2E/DX2                !
 ! D57   D(10,11,12,13)         -0.1279         estimate D2E/DX2                !
 ! D58   D(10,11,12,26)       -179.6572         estimate D2E/DX2                !
 ! D59   D(25,11,12,13)        179.8311         estimate D2E/DX2                !
 ! D60   D(25,11,12,26)          0.3018         estimate D2E/DX2                !
 ! D61   D(11,12,13,9)          -0.0046         estimate D2E/DX2                !
 ! D62   D(11,12,13,31)       -179.993          estimate D2E/DX2                !
 ! D63   D(26,12,13,9)         179.5254         estimate D2E/DX2                !
 ! D64   D(26,12,13,31)         -0.4629         estimate D2E/DX2                !
 ! D65   D(11,12,26,27)        -87.004          estimate D2E/DX2                !
 ! D66   D(13,12,26,27)         93.469          estimate D2E/DX2                !
 ! D67   D(12,26,27,28)         64.8927         estimate D2E/DX2                !
 ! D68   D(12,26,27,29)       -176.1025         estimate D2E/DX2                !
 ! D69   D(12,26,27,30)        -57.1896         estimate D2E/DX2                !
 ! D70   D(21,32,34,33)         -0.4951         estimate D2E/DX2                !
 ! D71   D(21,32,34,35)        179.4277         estimate D2E/DX2                !
 ! D72   D(22,33,34,32)          0.1897         estimate D2E/DX2                !
 ! D73   D(22,33,34,35)       -179.7314         estimate D2E/DX2                !
 ! D74   D(32,34,35,36)       -179.7683         estimate D2E/DX2                !
 ! D75   D(32,34,35,37)         59.2008         estimate D2E/DX2                !
 ! D76   D(32,34,35,38)        -58.8489         estimate D2E/DX2                !
 ! D77   D(33,34,35,36)          0.1534         estimate D2E/DX2                !
 ! D78   D(33,34,35,37)       -120.8776         estimate D2E/DX2                !
 ! D79   D(33,34,35,38)        121.0727         estimate D2E/DX2                !
 ! D80   D(34,35,36,39)        -60.4495         estimate D2E/DX2                !
 ! D81   D(34,35,36,40)        179.9766         estimate D2E/DX2                !
 ! D82   D(34,35,36,41)         60.4498         estimate D2E/DX2                !
 ! D83   D(37,35,36,39)         60.4716         estimate D2E/DX2                !
 ! D84   D(37,35,36,40)        -59.1023         estimate D2E/DX2                !
 ! D85   D(37,35,36,41)       -178.6291         estimate D2E/DX2                !
 ! D86   D(38,35,36,39)        178.712          estimate D2E/DX2                !
 ! D87   D(38,35,36,40)         59.1382         estimate D2E/DX2                !
 ! D88   D(38,35,36,41)        -60.3886         estimate D2E/DX2                !
 --------------------------------------------------------------------------------
 Trust Radius=3.00D-01 FncErr=1.00D-07 GrdErr=1.00D-06
 Number of steps in this run=    213 maximum allowed number of steps=    246.
 GradGradGradGradGradGradGradGradGradGradGradGradGradGradGradGradGradGrad

                          Input orientation:                          
 ---------------------------------------------------------------------
 Center     Atomic      Atomic             Coordinates (Angstroms)
 Number     Number       Type             X           Y           Z
 ---------------------------------------------------------------------
      1          6           0       -1.806300    2.569590    0.243960
      2          6           0       -0.497130    1.791170    0.153100
      3          6           0        0.704950    2.736340    0.052590
      4          7           0        1.950260    1.992420   -0.044080
      5          6           0        3.153490    2.626570   -0.155750
      6          8           0        3.180550    3.846560   -0.172670
      7          7           0        4.304870    1.888170   -0.261300
      8          6           0        5.653530    2.383050   -0.399390
      9          6           0        6.014050    3.753700   -0.342890
     10          6           0        6.686310    1.444330   -0.605410
     11          6           0        8.015350    1.847220   -0.755430
     12          6           0        8.349220    3.200160   -0.697380
     13          6           0        7.347520    4.149450   -0.491220
     14          1           0       -2.657200    1.859610    0.313790
     15          1           0       -1.943580    3.200810   -0.659880
     16          1           0       -1.808520    3.217890    1.145970
     17          1           0       -0.530180    1.137250   -0.745560
     18          1           0       -0.393690    1.153240    1.057710
     19          1           0        0.735490    3.387720    0.953830
     20          1           0        0.590130    3.374030   -0.851740
     21          1           0        1.913990    0.852020   -0.032450
     22          1           0        4.179400    0.749040   -0.253930
     23          1           0        5.309930    4.548500   -0.182920
     24          1           0        6.470420    0.386550   -0.659020
     25          1           0        8.785290    1.103520   -0.917750
     26         16           0       10.056260    3.720930   -0.899210
     27          6           0       10.493650    3.538750    0.861210
     28          9           0       10.411920    2.211410    1.238720
     29          9           0       11.793460    3.971410    1.038810
     30          9           0        9.660880    4.312760    1.648170
     31          1           0        7.600960    5.201360   -0.445380
     32          8           0        1.922180   -1.203840    0.233430
     33          8           0        4.137930   -1.308980    0.026830
     34          6           0        3.079460   -1.896940    0.213160
     35          6           0        3.042250   -3.387150    0.423310
     36          6           0        4.425880   -4.035310    0.379840
     37          1           0        2.407840   -3.841830   -0.367170
     38          1           0        2.580990   -3.594770    1.412390
     39          1           0        4.902250   -3.863020   -0.608940
     40          1           0        4.328860   -5.129630    0.541310
     41          1           0        5.074050   -3.614940    1.178360
 ---------------------------------------------------------------------
                    Distance matrix (angstroms):
                    1          2          3          4          5
     1  C    0.000000
     2  C    1.525818   0.000000
     3  C    2.524045   1.532464   0.000000
     4  N    3.811540   2.463554   1.453808   0.000000
     5  C    4.976197   3.757700   2.459838   1.364690   0.000000
     6  O    5.164582   4.225646   2.722485   2.228897   1.220407
     7  N    6.169767   4.820824   3.711784   2.366905   1.371879
     8  C    7.489844   6.203724   4.981721   3.740728   2.523661
     9  C    7.931228   6.818577   5.420145   4.439120   3.080300
    10  C    8.608836   7.231697   6.154585   4.800590   3.752426
    11  C    9.898758   8.561010   7.408467   6.108389   4.960311
    12  C   10.218529   8.998137   7.694962   6.544626   5.255281
    13  C    9.318201   8.216761   6.812954   5.829505   4.474549
    14  H    1.110396   2.167120   3.484384   4.623245   5.879865
    15  H    1.110951   2.177209   2.781736   4.123276   5.154030
    16  H    1.110819   2.177399   2.782966   4.128731   5.163882
    17  H    2.158525   1.111887   2.172482   2.715874   4.016886
    18  H    2.159561   1.111744   2.173357   2.722548   4.028110
    19  H    2.762960   2.170137   1.112413   2.101988   2.767172
    20  H    2.755097   2.167322   1.112495   2.100265   2.759332
    21  H    4.106946   2.594211   2.240462   1.141036   2.168085
    22  H    6.276217   4.808497   4.014364   2.561073   2.141787
    23  H    7.398584   6.437214   4.954314   4.223767   2.888734
    24  H    8.607272   7.153967   6.266462   4.836199   4.033980
    25  H   10.755497   9.369253   8.300576   6.947739   5.883664
    26  S   11.973001  10.779859   9.451050   8.332240   7.028413
    27  C   12.353503  11.151354   9.854764   8.729273   7.466206
    28  F   12.263879  10.970986   9.793249   8.561146   7.402818
    29  F   13.694903  12.513854  11.200584  10.098398   8.825228
    30  F   11.683607  10.572550   9.232533   8.228083   6.960136
    31  H    9.792750   8.807192   7.340249   6.510664   5.147176
    32  O    5.304757   3.850922   4.127877   3.208407   4.042230
    33  O    7.101008   5.577693   5.305717   3.961082   4.060913
    34  C    6.619780   5.137875   5.208778   4.058126   4.539132
    35  C    7.682666   6.278154   6.564871   5.509144   6.042558
    36  C    9.082028   7.631206   7.733541   6.530079   6.803417
    37  H    7.696672   6.359263   6.807962   5.861078   6.514667
    38  H    7.655905   6.330007   6.741775   5.808254   6.441420
    39  H    9.333303   7.855181   7.848981   6.581754   6.736343
    40  H    9.849193   8.446204   8.674391   7.531535   7.875660
    41  H    9.298426   7.830404   7.790709   6.534134   6.665197
                    6          7          8          9         10
     6  O    0.000000
     7  N    2.259921   0.000000
     8  C    2.882515   1.443211   0.000000
     9  C    2.840127   2.531433   1.418396   0.000000
    10  C    4.271806   2.446766   1.410771   2.419512   0.000000
    11  C    5.264244   3.743461   2.447871   2.794648   1.396844
    12  C    5.235294   4.274137   2.832527   2.425920   2.420055
    13  C    4.190090   3.797890   2.449123   1.398843   2.787097
    14  H    6.185785   6.985840   8.357682   8.899965   9.397796
    15  H    5.187589   6.397266   7.645434   7.983110   8.806997
    16  H    5.198544   6.412652   7.665982   7.981002   8.852965
    17  H    4.630128   4.916919   6.317446   7.059384   7.224380
    18  H    4.641444   4.935218   6.340697   7.055721   7.278537
    19  H    2.730907   4.057791   5.198816   5.447809   6.451376
    20  H    2.719319   4.044217   5.179255   5.460951   6.399049
    21  H    3.254398   2.615776   4.057445   5.032555   4.842949
    22  H    3.255601   1.146043   2.205495   3.521624   2.625179
    23  H    2.242116   2.844933   2.203201   1.073817   3.421811
    24  H    4.799109   2.665080   2.172724   3.412611   1.080917
    25  H    6.284308   4.595733   3.422545   3.877330   2.149285
    26  S    6.915131   6.069961   4.628582   4.080445   4.077473
    27  C    7.392231   6.502726   5.133373   4.643584   4.586219
    28  F    7.547082   6.296873   5.035389   4.921525   4.227221
    29  F    8.698591   7.880936   6.503080   5.946265   5.930647
    30  F    6.747405   6.181550   4.896441   4.192402   4.706865
    31  H    4.631401   4.677106   3.425999   2.150467   3.870073
    32  O    5.220628   3.934780   5.214328   6.453894   5.514834
    33  O    5.247473   3.214445   4.013701   5.411769   3.804561
    34  C    5.757332   4.006719   5.031835   6.391459   4.984326
    35  C    7.259537   5.467349   6.386770   7.772413   6.138456
    36  C    7.998749   5.959305   6.581008   7.982061   6.008886
    37  H    7.729570   6.036790   7.020304   8.408176   6.804818
    38  H    7.631860   5.986287   6.961134   8.298610   6.805711
    39  H    7.911524   5.792573   6.294579   7.702033   5.599183
    40  H    9.077465   7.063588   7.686353   9.084890   7.077393
    41  H    7.815664   5.740077   6.229043   7.582523   5.601556
                   11         12         13         14         15
    11  C    0.000000
    12  C    1.394735   0.000000
    13  C    2.411652   1.395370   0.000000
    14  H   10.725983  11.133769  10.294942   0.000000
    15  H   10.050951  10.292868   9.340926   1.804468   0.000000
    16  H   10.099628  10.323659   9.347795   1.804912   1.810974
    17  H    8.574977   9.116011   8.437784   2.483594   2.502663
    18  H    8.630240   9.149246   8.444098   2.485126   3.089469
    19  H    7.634859   7.792981   6.810825   3.775595   3.133115
    20  H    7.581182   7.762573   6.811283   3.767901   2.546861
    21  H    6.224124   6.882447   6.372344   4.693708   4.559751
    22  H    4.021444   4.857163   4.653609   6.949444   6.608090
    23  H    3.865744   3.364517   2.099062   8.423302   7.393049
    24  H    2.128300   3.383454   3.867412   9.296758   8.872173
    25  H    1.082703   2.152817   3.395114  11.533384  10.934979
    26  S    2.774306   1.796085   2.772608  12.906120  12.013491
    27  C    3.408338   2.672532   3.478528  13.268912  12.534457
    28  F    3.138920   2.996805   4.017367  13.106531  12.539616
    29  F    4.691012   3.933443   4.705218  14.622138  13.863104
    30  F    3.816274   2.908597   3.155201  12.630661  11.883897
    31  H    3.393833   2.151325   1.082981  10.815428   9.754304
    32  O    6.885748   7.846558   7.656183   5.510164   5.928157
    33  O    5.060426   6.212229   6.353291   7.503073   7.602272
    34  C    6.270559   7.387820   7.434468   6.857920   7.209728
    35  C    7.315721   8.533026   8.727660   7.747530   8.332648
    36  C    6.984074   8.300905   8.734130   9.215447   9.696003
    37  H    7.997512   9.219472   9.395551   7.656680   8.283678
    38  H    7.990430   9.159404   9.290666   7.641716   8.422942
    39  H    6.505359   7.859894   8.378119   9.526028   9.836955
    40  H    7.996761   9.331830   9.812225   9.884648  10.496790
    41  H    6.498152   7.790425   8.260866   9.512645   9.953929
                   16         17         18         19         20
    16  H    0.000000
    17  H    3.088867   0.000000
    18  H    2.504459   1.808499   0.000000
    19  H    2.556902   3.091029   2.505741   0.000000
    20  H    3.125499   2.503908   3.089629   1.811463   0.000000
    21  H    4.565424   2.562001   2.569936   2.965027   2.963845
    22  H    6.626472   4.751058   4.774613   4.503536   4.486737
    23  H    7.362663   6.786757   6.752646   4.854391   4.909502
    24  H    8.933942   7.041267   7.116950   6.670662   6.598484
    25  H   10.998105   9.317122   9.389280   8.574361   8.504130
    26  S   12.050262  10.898244  10.937277   9.509024   9.472603
    27  C   12.309648  11.396216  11.147351   9.759768  10.051917
    28  F   12.262168  11.172320  10.858807   9.751829  10.108871
    29  F   13.623257  12.770612  12.508760  11.073690  11.377418
    30  F   11.532479  10.939447  10.555832   9.000022   9.455647
    31  H    9.747044   9.095193   9.086307   7.237524   7.256445
    32  O    5.856838   3.528908   3.405660   4.796836   4.889667
    33  O    7.556804   5.326526   5.259356   5.873237   5.940484
    34  C    7.136103   4.811959   4.698897   5.828415   5.925698
    35  C    8.226710   5.882067   5.729161   7.176452   7.304259
    36  C    9.594978   7.251512   7.113987   8.309622   8.433747
    37  H    8.361036   5.793650   5.901659   7.537121   7.457045
    38  H    8.108706   6.060375   5.614100   7.236803   7.593022
    39  H    9.912287   7.384623   7.482484   8.507489   8.427824
    40  H   10.378542   8.033685   7.876776   9.253525   9.393132
    41  H    9.698370   7.595536   7.255775   8.240799   8.548248
                   21         22         23         24         25
    21  H    0.000000
    22  H    2.278539   0.000000
    23  H    5.021854   3.964724   0.000000
    24  H    4.622803   2.354627   4.346865   0.000000
    25  H    6.932660   4.666962   4.948332   2.437132   0.000000
    26  S    8.676317   6.617099   4.870892   4.902451   2.909733
    27  C    9.034806   6.992551   5.383378   5.332339   3.466055
    28  F    8.699346   6.573495   5.789072   4.739932   2.919539
    29  F   10.415475   8.368319   6.622826   6.638419   4.593692
    30  F    8.649596   6.809164   4.726439   5.560331   4.201169
    31  H    7.171394   5.618441   2.396650   4.950369   4.291627
    32  O    2.072998   3.024285   6.688768   4.900234   7.331535
    33  O    3.101507   2.077497   5.977261   2.964072   5.320746
    34  C    2.995901   2.903317   6.831952   4.180148   6.545091
    35  C    4.410357   4.342791   8.275532   5.211967   7.412629
    36  C    5.510496   4.832434   8.647545   4.981187   6.862636
    37  H    4.731612   4.922127   8.879961   5.871025   8.088974
    38  H    4.722964   4.919372   8.735272   5.938797   8.123843
    39  H    5.611920   4.681842   8.432163   4.529957   6.311884
    40  H    6.476182   5.934097   9.754651   6.037824   7.800050
    41  H    5.604085   4.679335   8.279521   4.619279   6.358525
                   26         27         28         29         30
    26  S    0.000000
    27  C    1.823068   0.000000
    28  F    2.641191   1.382398   0.000000
    29  F    2.614675   1.381391   2.246379   0.000000
    30  F    2.644945   1.382716   2.268784   2.244045   0.000000
    31  H    2.902780   3.583170   4.435932   4.614396   3.068523
    32  O    9.575985   9.816128   9.205989  11.174704   9.608426
    33  O    7.822031   8.036906   7.295531   9.354879   8.045849
    34  C    9.026271   9.216122   8.467307  10.538170   9.161589
    35  C   10.073242  10.182495   9.290899  11.450368  10.227177
    36  C    9.669354   9.716786   8.694358  10.900598   9.934997
    37  H   10.769249  11.016451  10.162967  12.292817  11.097996
    38  H   10.711798  10.667760   9.750146  11.927122  10.616471
    39  H    9.174114   9.392087   8.406486  10.563245   9.725353
    40  H   10.640048  10.641794   9.559334  11.781201  10.900197
    41  H    9.107892   8.980419   7.902079  10.135218   9.171050
                   31         32         33         34         35
    31  H    0.000000
    32  O    8.586962   0.000000
    33  O    7.389187   2.227843   0.000000
    34  C    8.441771   1.349109   1.225061   0.000000
    35  C    9.762119   2.461190   2.382541   1.505415   0.000000
    36  C    9.801948   3.782482   2.764129   2.532441   1.528540
    37  H   10.428514   2.748741   3.092536   2.137862   1.110886
    38  H   10.296762   2.746001   3.093327   2.137581   1.110921
    39  H    9.459005   4.081868   2.740713   2.804261   2.179815
    40  H   10.881615   4.615054   3.859859   3.481231   2.169222
    41  H    9.313912   4.079287   2.742224   2.803841   2.179495
                   36         37         38         39         40
    36  C    0.000000
    37  H    2.160542   0.000000
    38  H    2.159596   1.804952   0.000000
    39  H    1.110990   2.506189   3.089657   0.000000
    40  H    1.110415   2.484770   2.483873   1.804481   0.000000
    41  H    1.111067   3.090116   2.504102   1.812595   1.804280
                   41
    41  H    0.000000
 Stoichiometry    C14H18F3N2O3S(1-)
 Framework group  C1[X(C14H18F3N2O3S)]
 Deg. of freedom   117
 Full point group                 C1      NOp   1
 Largest Abelian subgroup         C1      NOp   1
 Largest concise Abelian subgroup C1      NOp   1
                         Standard orientation:                         
 ---------------------------------------------------------------------
 Center     Atomic      Atomic             Coordinates (Angstroms)
 Number     Number       Type             X           Y           Z
 ---------------------------------------------------------------------
      1          6           0        6.564944   -3.206077    0.456074
      2          6           0        5.602365   -2.034882    0.283265
      3          6           0        4.151360   -2.518352    0.186907
      4          7           0        3.237084   -1.401610    0.012138
      5          6           0        1.891497   -1.593416   -0.110272
      6          8           0        1.449290   -2.730169   -0.069758
      7          7           0        1.063734   -0.514340   -0.290421
      8          6           0       -0.370474   -0.527415   -0.450850
      9          6           0       -1.178677   -1.687867   -0.341272
     10          6           0       -1.016722    0.693595   -0.736807
     11          6           0       -2.400857    0.759500   -0.912871
     12          6           0       -3.177990   -0.393317   -0.801679
     13          6           0       -2.564561   -1.613657   -0.516143
     14          1           0        7.606062   -2.825505    0.521010
     15          1           0        6.492524   -3.896445   -0.411313
     16          1           0        6.331070   -3.764191    1.387595
     17          1           0        5.871248   -1.483313   -0.643971
     18          1           0        5.708863   -1.349695    1.152260
     19          1           0        3.885663   -3.068246    1.116684
     20          1           0        4.055632   -3.207172   -0.681429
     21          1           0        3.660821   -0.342991   -0.029536
     22          1           0        1.570919    0.512473   -0.333228
     23          1           0       -0.791314   -2.664505   -0.119436
     24          1           0       -0.451416    1.609816   -0.833499
     25          1           0       -2.867497    1.710456   -1.136867
     26         16           0       -4.956776   -0.312275   -1.036787
     27          6           0       -5.333467    0.107360    0.696876
     28          9           0       -4.808927    1.346676    1.013069
     29          9           0       -6.705523    0.153931    0.850290
     30          9           0       -4.828083   -0.858052    1.548033
     31          1           0       -3.163019   -2.512024   -0.428776
     32          8           0        4.351688    1.604363    0.137304
     33          8           0        2.308949    2.445788   -0.149935
     34          6           0        3.501540    2.647763    0.044251
     35          6           0        4.042585    4.045617    0.184060
     36          6           0        2.964760    5.122596    0.062235
     37          1           0        4.806689    4.211560   -0.605039
     38          1           0        4.531245    4.139449    1.177314
     39          1           0        2.473976    5.067085   -0.932927
     40          1           0        3.427445    6.125770    0.174428
     41          1           0        2.199328    4.993995    0.857248
 ---------------------------------------------------------------------
 Rotational constants (GHZ):      0.3025184      0.0865897      0.0704730
 General basis read from cards:  (6D, 7F)
 There are   477 symmetry adapted cartesian basis functions of A   symmetry.
 There are   477 symmetry adapted basis functions of A   symmetry.
   477 basis functions,   832 primitive gaussians,   477 cartesian basis functions
    92 alpha electrons       92 beta electrons
       nuclear repulsion energy      2018.9564422025 Hartrees.
 NAtoms=   41 NActive=   41 NUniq=   41 SFac= 1.00D+00 NAtFMM=   60 NAOKFM=F Big=F
 Integral buffers will be    131072 words long.
 Raffenetti 2 integral format.
 Two-electron integral symmetry is turned on.
 ------------------------------------------------------------------------------
 Polarizable Continuum Model (PCM)
 =================================
 Model                : PCM (using non-symmetric T matrix).
 Atomic radii         : SMD-Coulomb.
 Polarization charges : Total charges.
 Charge compensation  : None.
 Solution method      : On-the-fly selection.
 Cavity type          : VdW (van der Waals Surface) (Alpha=1.000).
 Cavity algorithm     : GePol (No added spheres)
                        Default sphere list used, NSphG=   41.
                        Lebedev-Laikov grids with approx.  5.0 points / Ang**2.
                        Smoothing algorithm: York/Karplus (Gamma=1.0000).
                        Polarization charges: spherical gaussians, with
                                              point-specific exponents (IZeta= 3).
                        Self-potential: point-specific (ISelfS= 7).
                        Self-field    : sphere-specific E.n sum rule (ISelfD= 2).
 1st derivatives      : Analytical E(r).r(x)/FMM algorithm (CHGder, D1EAlg=3).
                        Cavity 1st derivative terms included.
 Solvent              : n-Pentadecane, Eps=   2.033300 Eps(inf)=   2.049192
 ------------------------------------------------------------------------------
 ------------------------------------------------------------------------------
 Atomic radii for non-electrostatic terms: SMD-CDS.
 ------------------------------------------------------------------------------
 Nuclear repulsion after PCM non-electrostatic terms =     2018.9466880394 Hartrees.
 One-electron integrals computed using PRISM.
 NBasis=   477 RedAO= T EigKep=  1.03D-06  NBF=   477
 NBsUse=   477 1.00D-06 EigRej= -1.00D+00 NBFU=   477
 ExpMin= 4.05D-02 ExpMax= 2.19D+04 ExpMxC= 3.30D+03 IAcc=3 IRadAn=         5 AccDes= 0.00D+00
 Harris functional with IExCor= 1009 and IRadAn=       5 diagonalized for initial guess.
 HarFok:  IExCor= 1009 AccDes= 0.00D+00 IRadAn=         5 IDoV= 1 UseB2=F ITyADJ=14
 ICtDFT=  3500011 ScaDFX=  1.000000  1.000000  1.000000  1.000000
 FoFCou: FMM=F IPFlag=           0 FMFlag=      100000 FMFlg1=           0
         NFxFlg=           0 DoJE=T BraDBF=F KetDBF=T FulRan=T
         wScrn=  0.000000 ICntrl=     500 IOpCl=  0 I1Cent=   200000004 NGrid=           0
         NMat0=    1 NMatS0=      1 NMatT0=    0 NMatD0=    1 NMtDS0=    0 NMtDT0=    0
 Petite list used in FoFCou.
 Requested convergence on RMS density matrix=1.00D-08 within 128 cycles.
 Requested convergence on MAX density matrix=1.00D-06.
 Requested convergence on             energy=1.00D-06.
 No special actions if energy rises.
 Inv3:  Mode=1 IEnd=    33126987.
 Iteration    1 A*A^-1 deviation from unit magnitude is 5.11D-15 for   3322.
 Iteration    1 A*A^-1 deviation from orthogonality  is 3.55D-15 for   1423    730.
 Iteration    1 A^-1*A deviation from unit magnitude is 4.77D-15 for   3321.
 Iteration    1 A^-1*A deviation from orthogonality  is 3.07D-15 for   3318    464.
 Error on total polarization charges =  0.02650
 SCF Done:  E(RM062X) =  -1576.90434890     A.U. after   16 cycles
            NFock= 16  Conv=0.21D-08     -V/T= 2.0076
 SMD-CDS (non-electrostatic) energy       (kcal/mol) =      -6.12
 (included in total energy above)

 **********************************************************************

            Population analysis using the SCF density.

 **********************************************************************

 Orbital symmetries:
       Occupied  (A) (A) (A) (A) (A) (A) (A) (A) (A) (A) (A) (A)
                 (A) (A) (A) (A) (A) (A) (A) (A) (A) (A) (A) (A)
                 (A) (A) (A) (A) (A) (A) (A) (A) (A) (A) (A) (A)
                 (A) (A) (A) (A) (A) (A) (A) (A) (A) (A) (A) (A)
                 (A) (A) (A) (A) (A) (A) (A) (A) (A) (A) (A) (A)
                 (A) (A) (A) (A) (A) (A) (A) (A) (A) (A) (A) (A)
                 (A) (A) (A) (A) (A) (A) (A) (A) (A) (A) (A) (A)
                 (A) (A) (A) (A) (A) (A) (A) (A)
       Virtual   (A) (A) (A) (A) (A) (A) (A) (A) (A) (A) (A) (A)
                 (A) (A) (A) (A) (A) (A) (A) (A) (A) (A) (A) (A)
                 (A) (A) (A) (A) (A) (A) (A) (A) (A) (A) (A) (A)
                 (A) (A) (A) (A) (A) (A) (A) (A) (A) (A) (A) (A)
                 (A) (A) (A) (A) (A) (A) (A) (A) (A) (A) (A) (A)
                 (A) (A) (A) (A) (A) (A) (A) (A) (A) (A) (A) (A)
                 (A) (A) (A) (A) (A) (A) (A) (A) (A) (A) (A) (A)
                 (A) (A) (A) (A) (A) (A) (A) (A) (A) (A) (A) (A)
                 (A) (A) (A) (A) (A) (A) (A) (A) (A) (A) (A) (A)
                 (A) (A) (A) (A) (A) (A) (A) (A) (A) (A) (A) (A)
                 (A) (A) (A) (A) (A) (A) (A) (A) (A) (A) (A) (A)
                 (A) (A) (A) (A) (A) (A) (A) (A) (A) (A) (A) (A)
                 (A) (A) (A) (A) (A) (A) (A) (A) (A) (A) (A) (A)
                 (A) (A) (A) (A) (A) (A) (A) (A) (A) (A) (A) (A)
                 (A) (A) (A) (A) (A) (A) (A) (A) (A) (A) (A) (A)
                 (A) (A) (A) (A) (A) (A) (A) (A) (A) (A) (A) (A)
                 (A) (A) (A) (A) (A) (A) (A) (A) (A) (A) (A) (A)
                 (A) (A) (A) (A) (A) (A) (A) (A) (A) (A) (A) (A)
                 (A) (A) (A) (A) (A) (A) (A) (A) (A) (A) (A) (A)
                 (A) (A) (A) (A) (A) (A) (A) (A) (A) (A) (A) (A)
                 (A) (A) (A) (A) (A) (A) (A) (A) (A) (A) (A) (A)
                 (A) (A) (A) (A) (A) (A) (A) (A) (A) (A) (A) (A)
                 (A) (A) (A) (A) (A) (A) (A) (A) (A) (A) (A) (A)
                 (A) (A) (A) (A) (A) (A) (A) (A) (A) (A) (A) (A)
                 (A) (A) (A) (A) (A) (A) (A) (A) (A) (A) (A) (A)
                 (A) (A) (A) (A) (A) (A) (A) (A) (A) (A) (A) (A)
                 (A) (A) (A) (A) (A) (A) (A) (A) (A) (A) (A) (A)
                 (A) (A) (A) (A) (A) (A) (A) (A) (A) (A) (A) (A)
                 (A) (A) (A) (A) (A) (A) (A) (A) (A) (A) (A) (A)
                 (A) (A) (A) (A) (A) (A) (A) (A) (A) (A) (A) (A)
                 (A) (A) (A) (A) (A) (A) (A) (A) (A) (A) (A) (A)
                 (A) (A) (A) (A) (A) (A) (A) (A) (A) (A) (A) (A)
                 (A)
 The electronic state is 1-A.
 Alpha  occ. eigenvalues --  -89.91976 -25.28270 -25.27798 -25.27761 -19.53785
 Alpha  occ. eigenvalues --  -19.52290 -19.49586 -14.74082 -14.71279 -10.80566
 Alpha  occ. eigenvalues --  -10.61300 -10.57136 -10.56231 -10.54734 -10.52551
 Alpha  occ. eigenvalues --  -10.52526 -10.52393 -10.51452 -10.50980 -10.49780
 Alpha  occ. eigenvalues --  -10.49667 -10.48377 -10.48226  -8.26383  -6.18470
 Alpha  occ. eigenvalues --   -6.18210  -6.17758  -1.41751  -1.34168  -1.33957
 Alpha  occ. eigenvalues --   -1.11074  -1.07421  -0.97344  -0.94728  -0.94066
 Alpha  occ. eigenvalues --   -0.92235  -0.86516  -0.82621  -0.80800  -0.80078
 Alpha  occ. eigenvalues --   -0.79349  -0.74165  -0.71390  -0.66364  -0.65871
 Alpha  occ. eigenvalues --   -0.65706  -0.65353  -0.64649  -0.61916  -0.59886
 Alpha  occ. eigenvalues --   -0.59173  -0.54985  -0.54145  -0.53939  -0.53777
 Alpha  occ. eigenvalues --   -0.51256  -0.50907  -0.50693  -0.49866  -0.49065
 Alpha  occ. eigenvalues --   -0.48876  -0.47823  -0.47560  -0.46563  -0.45824
 Alpha  occ. eigenvalues --   -0.45242  -0.45171  -0.44744  -0.42929  -0.42433
 Alpha  occ. eigenvalues --   -0.41413  -0.40910  -0.40092  -0.38931  -0.38104
 Alpha  occ. eigenvalues --   -0.37472  -0.37167  -0.37152  -0.36699  -0.34946
 Alpha  occ. eigenvalues --   -0.34622  -0.34448  -0.33651  -0.31735  -0.29011
 Alpha  occ. eigenvalues --   -0.27492  -0.26973  -0.24877  -0.24346  -0.22642
 Alpha  occ. eigenvalues --   -0.21854  -0.21663
 Alpha virt. eigenvalues --    0.04058   0.05004   0.05748   0.06032   0.06870
 Alpha virt. eigenvalues --    0.07065   0.07423   0.07865   0.08333   0.08508
 Alpha virt. eigenvalues --    0.08837   0.08979   0.09534   0.10179   0.10352
 Alpha virt. eigenvalues --    0.10680   0.10970   0.11219   0.11469   0.11737
 Alpha virt. eigenvalues --    0.12308   0.12668   0.13241   0.13631   0.13841
 Alpha virt. eigenvalues --    0.13965   0.14432   0.14806   0.15209   0.15476
 Alpha virt. eigenvalues --    0.15879   0.16027   0.16205   0.16858   0.17075
 Alpha virt. eigenvalues --    0.17393   0.17517   0.18044   0.18198   0.18916
 Alpha virt. eigenvalues --    0.19346   0.20118   0.20139   0.20627   0.20798
 Alpha virt. eigenvalues --    0.21014   0.21381   0.21852   0.22191   0.22601
 Alpha virt. eigenvalues --    0.22800   0.23296   0.24015   0.24149   0.24405
 Alpha virt. eigenvalues --    0.24761   0.25735   0.25767   0.26220   0.26682
 Alpha virt. eigenvalues --    0.27108   0.27264   0.27710   0.28219   0.28375
 Alpha virt. eigenvalues --    0.28686   0.29079   0.29407   0.29883   0.30018
 Alpha virt. eigenvalues --    0.30208   0.30602   0.30884   0.31169   0.31519
 Alpha virt. eigenvalues --    0.31782   0.32495   0.32585   0.33143   0.33461
 Alpha virt. eigenvalues --    0.33665   0.34044   0.34357   0.34755   0.35126
 Alpha virt. eigenvalues --    0.35336   0.35697   0.35863   0.36516   0.36866
 Alpha virt. eigenvalues --    0.37260   0.37498   0.38125   0.38237   0.38512
 Alpha virt. eigenvalues --    0.38706   0.38882   0.39694   0.39916   0.40225
 Alpha virt. eigenvalues --    0.40942   0.40982   0.41453   0.41541   0.41730
 Alpha virt. eigenvalues --    0.42027   0.42412   0.43201   0.43645   0.44333
 Alpha virt. eigenvalues --    0.44520   0.44778   0.44979   0.45535   0.45789
 Alpha virt. eigenvalues --    0.47497   0.47794   0.48180   0.48718   0.49665
 Alpha virt. eigenvalues --    0.50114   0.50912   0.52301   0.52445   0.52671
 Alpha virt. eigenvalues --    0.53529   0.54660   0.55432   0.56310   0.57905
 Alpha virt. eigenvalues --    0.58694   0.59524   0.60307   0.61499   0.63494
 Alpha virt. eigenvalues --    0.64056   0.66228   0.67196   0.69506   0.69737
 Alpha virt. eigenvalues --    0.73294   0.74538   0.75144   0.75842   0.76488
 Alpha virt. eigenvalues --    0.76711   0.78163   0.78574   0.79734   0.80133
 Alpha virt. eigenvalues --    0.80688   0.81369   0.81952   0.82098   0.83059
 Alpha virt. eigenvalues --    0.83654   0.84898   0.85621   0.86744   0.87497
 Alpha virt. eigenvalues --    0.88110   0.88700   0.90167   0.91262   0.91297
 Alpha virt. eigenvalues --    0.92814   0.93187   0.93995   0.94919   0.95208
 Alpha virt. eigenvalues --    0.95965   0.97645   0.98102   0.99859   1.01455
 Alpha virt. eigenvalues --    1.02102   1.02434   1.03307   1.03726   1.04415
 Alpha virt. eigenvalues --    1.05117   1.05527   1.05684   1.06358   1.07584
 Alpha virt. eigenvalues --    1.07923   1.08890   1.10418   1.10993   1.12027
 Alpha virt. eigenvalues --    1.12555   1.13056   1.14524   1.14744   1.16898
 Alpha virt. eigenvalues --    1.17815   1.18813   1.19439   1.19797   1.20874
 Alpha virt. eigenvalues --    1.21203   1.22065   1.22929   1.24588   1.24735
 Alpha virt. eigenvalues --    1.26942   1.28112   1.29354   1.30442   1.32799
 Alpha virt. eigenvalues --    1.33244   1.34077   1.35407   1.35925   1.38034
 Alpha virt. eigenvalues --    1.38210   1.39761   1.40180   1.41718   1.42351
 Alpha virt. eigenvalues --    1.43491   1.45508   1.46106   1.46803   1.47156
 Alpha virt. eigenvalues --    1.48236   1.50469   1.50725   1.51702   1.52700
 Alpha virt. eigenvalues --    1.53289   1.54022   1.54236   1.55365   1.56585
 Alpha virt. eigenvalues --    1.57316   1.58551   1.59857   1.62018   1.62088
 Alpha virt. eigenvalues --    1.62507   1.63634   1.64766   1.65408   1.66987
 Alpha virt. eigenvalues --    1.68453   1.69135   1.71239   1.71595   1.72721
 Alpha virt. eigenvalues --    1.73540   1.74640   1.76525   1.77609   1.78311
 Alpha virt. eigenvalues --    1.79099   1.79523   1.80966   1.83413   1.84475
 Alpha virt. eigenvalues --    1.86816   1.89361   1.90015   1.91175   1.91479
 Alpha virt. eigenvalues --    1.92204   1.92928   1.93243   1.93686   1.94127
 Alpha virt. eigenvalues --    1.94930   1.95431   1.95542   1.95753   1.96673
 Alpha virt. eigenvalues --    1.98106   1.99876   2.00265   2.01318   2.01619
 Alpha virt. eigenvalues --    2.02805   2.04149   2.04281   2.04569   2.04876
 Alpha virt. eigenvalues --    2.04989   2.06193   2.07980   2.09300   2.09752
 Alpha virt. eigenvalues --    2.10798   2.11398   2.11671   2.11955   2.13011
 Alpha virt. eigenvalues --    2.14350   2.15367   2.15751   2.17451   2.18430
 Alpha virt. eigenvalues --    2.18870   2.20901   2.21437   2.22291   2.22540
 Alpha virt. eigenvalues --    2.23687   2.25581   2.26504   2.27662   2.29823
 Alpha virt. eigenvalues --    2.30836   2.32520   2.33155   2.34020   2.35788
 Alpha virt. eigenvalues --    2.37310   2.37854   2.38025   2.38191   2.39272
 Alpha virt. eigenvalues --    2.41228   2.42854   2.43529   2.44599   2.44934
 Alpha virt. eigenvalues --    2.46424   2.48343   2.55028   2.62557   2.63156
 Alpha virt. eigenvalues --    2.63782   2.63917   2.66610   2.68298   2.70452
 Alpha virt. eigenvalues --    2.71693   2.72584   2.72885   2.75281   2.78412
 Alpha virt. eigenvalues --    2.79749   2.80678   2.80861   2.84424   2.84960
 Alpha virt. eigenvalues --    2.85631   2.86114   2.87664   2.95437   2.96631
 Alpha virt. eigenvalues --    3.05208   3.10717   3.12292   3.16448   3.19009
 Alpha virt. eigenvalues --    3.20491   3.24396   3.27275   3.29839   3.33846
 Alpha virt. eigenvalues --    3.37746   3.45529   4.05891   4.26246   4.29136
 Alpha virt. eigenvalues --    4.32889   4.35112   4.38059   4.41198   4.45499
 Alpha virt. eigenvalues --    4.47674   4.49728   4.50254   4.52033   4.55272
 Alpha virt. eigenvalues --    4.57954   4.60133   4.64922   4.70637   4.77815
 Alpha virt. eigenvalues --    4.80607   4.85043   5.59613   5.71379   6.31658
          Condensed to atoms (all electrons):
               1          2          3          4          5          6
     1  C    5.840349  -0.218589   0.059687  -0.015929  -0.071311  -0.001075
     2  C   -0.218589   6.363233  -0.512143  -0.062210   0.200191   0.022382
     3  C    0.059687  -0.512143   7.316611   0.351672  -0.808876  -0.096973
     4  N   -0.015929  -0.062210   0.351672   7.747885   0.532442  -0.190276
     5  C   -0.071311   0.200191  -0.808876   0.532442   7.198972   0.632109
     6  O   -0.001075   0.022382  -0.096973  -0.190276   0.632109   8.358816
     7  N   -0.006212   0.017253  -0.236869  -0.379104   0.182518  -0.077649
     8  C   -0.010684   0.028854  -0.420628  -0.239859  -0.955239  -0.470343
     9  C   -0.002467  -0.009354  -0.054240   0.038360   0.847473   0.358477
    10  C   -0.001784   0.010305  -0.114889  -0.125128  -1.421413  -0.171001
    11  C    0.000061  -0.000015   0.013296  -0.001945   0.389115   0.004327
    12  C   -0.000236   0.000824  -0.029201  -0.012241  -0.484401   0.005902
    13  C   -0.001108  -0.002739  -0.065735   0.002686  -0.749788   0.258750
    14  H    0.449813  -0.126008   0.029040   0.000257  -0.002317   0.000005
    15  H    0.424963  -0.072151  -0.008497  -0.000067  -0.000555  -0.000042
    16  H    0.419995  -0.070092  -0.004908   0.000046  -0.001133  -0.000046
    17  H   -0.033259   0.416770  -0.063537   0.005159  -0.010690  -0.000227
    18  H   -0.031569   0.423902  -0.076965   0.005116  -0.004202  -0.000137
    19  H   -0.007436  -0.049927   0.445745  -0.056186  -0.026228   0.001299
    20  H   -0.004031  -0.056095   0.455581  -0.058912  -0.031603   0.001321
    21  H    0.000709   0.000299  -0.061133   0.173166   0.024647   0.004470
    22  H    0.000173   0.000519   0.006699   0.029836  -0.017977   0.004147
    23  H    0.000001   0.000073   0.000679  -0.000453  -0.001927  -0.005267
    24  H   -0.000001   0.000015  -0.000167   0.000763   0.000895   0.000063
    25  H    0.000000   0.000000   0.000022  -0.000001   0.003356  -0.000001
    26  S   -0.000008   0.000016  -0.001570  -0.000422  -0.060705   0.000601
    27  C    0.000001  -0.000003   0.000174   0.000058   0.010086  -0.000023
    28  F   -0.000000   0.000000  -0.000003   0.000000  -0.000618   0.000000
    29  F    0.000000  -0.000000  -0.000000   0.000000  -0.000018   0.000000
    30  F   -0.000000   0.000000  -0.000011  -0.000002  -0.001785  -0.000003
    31  H   -0.000000   0.000002   0.000029   0.000006   0.001570   0.000255
    32  O    0.006158   0.013590  -0.020486  -0.034515   0.002725  -0.000248
    33  O   -0.000033  -0.001084   0.009344   0.008948   0.022141  -0.000064
    34  C   -0.002436  -0.003621   0.000637  -0.007462  -0.015411  -0.000739
    35  C    0.002376  -0.000398   0.016526  -0.009964  -0.014119  -0.000571
    36  C   -0.000282  -0.000309  -0.001136   0.002045   0.001933   0.000040
    37  H    0.000001   0.000005   0.000001  -0.000038  -0.000006  -0.000000
    38  H    0.000007   0.000026  -0.000008  -0.000049  -0.000123  -0.000000
    39  H    0.000000   0.000007  -0.000011   0.000000  -0.000116  -0.000000
    40  H    0.000000   0.000002  -0.000002  -0.000002   0.000012   0.000000
    41  H    0.000000   0.000006  -0.000008  -0.000002  -0.000009  -0.000000
               7          8          9         10         11         12
     1  C   -0.006212  -0.010684  -0.002467  -0.001784   0.000061  -0.000236
     2  C    0.017253   0.028854  -0.009354   0.010305  -0.000015   0.000824
     3  C   -0.236869  -0.420628  -0.054240  -0.114889   0.013296  -0.029201
     4  N   -0.379104  -0.239859   0.038360  -0.125128  -0.001945  -0.012241
     5  C    0.182518  -0.955239   0.847473  -1.421413   0.389115  -0.484401
     6  O   -0.077649  -0.470343   0.358477  -0.171001   0.004327   0.005902
     7  N    7.868486   0.266502   0.010672  -0.020592   0.018297  -0.035801
     8  C    0.266502  11.635278  -1.538071  -0.903547   1.364944  -1.864826
     9  C    0.010672  -1.538071  21.519684  -1.341906  -3.265306   0.664468
    10  C   -0.020592  -0.903547  -1.341906  18.300496  -7.453444   2.641237
    11  C    0.018297   1.364944  -3.265306  -7.453444  15.323710  -2.500890
    12  C   -0.035801  -1.864826   0.664468   2.641237  -2.500890   9.010748
    13  C   -0.100427  -0.941435 -10.808068  -2.962445   1.910980  -0.808716
    14  H    0.000006  -0.000040   0.000001  -0.000002  -0.000000  -0.000000
    15  H    0.000008  -0.000006  -0.000021  -0.000003  -0.000000   0.000000
    16  H    0.000002  -0.000003  -0.000048   0.000004   0.000000  -0.000000
    17  H   -0.000476  -0.000418  -0.000450   0.000222   0.000004  -0.000001
    18  H   -0.000045  -0.000688   0.000024   0.000039   0.000002  -0.000001
    19  H   -0.000893  -0.001392  -0.000934   0.000478   0.000031  -0.000002
    20  H    0.000308   0.000070  -0.002291   0.000028   0.000007  -0.000030
    21  H    0.030236   0.012484  -0.002714   0.004737   0.000391  -0.000027
    22  H    0.165343   0.019259   0.032923  -0.087147   0.012461  -0.000895
    23  H   -0.012866   0.021714   0.256194   0.050083  -0.031122   0.033093
    24  H   -0.003964   0.024748   0.049023   0.217936   0.020579   0.029150
    25  H    0.000207   0.048167  -0.048439  -0.139715   0.396376  -0.005734
    26  S   -0.005058  -0.190160  -1.047702  -0.111477   0.169015  -0.509485
    27  C    0.001127   0.073756   0.184881  -0.011435   0.103330  -0.135214
    28  F   -0.000002  -0.015735   0.012763   0.025358   0.041218   0.008391
    29  F    0.000002  -0.003383   0.005427   0.005891  -0.009829   0.023219
    30  F   -0.000071  -0.021147  -0.055540   0.042029  -0.119676   0.049739
    31  H   -0.000810   0.033079  -0.045252  -0.057038   0.068747   0.004407
    32  O    0.014800  -0.005439  -0.007477   0.011210  -0.001184  -0.000248
    33  O   -0.010989  -0.113353  -0.003953   0.054650   0.043323  -0.000734
    34  C   -0.003119   0.006686  -0.006757   0.018985  -0.021504   0.002160
    35  C   -0.017789   0.015800   0.003081  -0.021375  -0.005670  -0.001700
    36  C    0.002940  -0.017201  -0.001800   0.010079   0.007737   0.000776
    37  H    0.000067  -0.000548  -0.000037   0.000484   0.000070  -0.000001
    38  H    0.000059  -0.000188  -0.000037   0.000197  -0.000026   0.000000
    39  H   -0.000014  -0.000101   0.000008   0.000247  -0.000495   0.000025
    40  H    0.000005   0.000069   0.000003  -0.000068  -0.000021  -0.000000
    41  H    0.000011  -0.001304  -0.000082   0.000688   0.000644   0.000022
              13         14         15         16         17         18
     1  C   -0.001108   0.449813   0.424963   0.419995  -0.033259  -0.031569
     2  C   -0.002739  -0.126008  -0.072151  -0.070092   0.416770   0.423902
     3  C   -0.065735   0.029040  -0.008497  -0.004908  -0.063537  -0.076965
     4  N    0.002686   0.000257  -0.000067   0.000046   0.005159   0.005116
     5  C   -0.749788  -0.002317  -0.000555  -0.001133  -0.010690  -0.004202
     6  O    0.258750   0.000005  -0.000042  -0.000046  -0.000227  -0.000137
     7  N   -0.100427   0.000006   0.000008   0.000002  -0.000476  -0.000045
     8  C   -0.941435  -0.000040  -0.000006  -0.000003  -0.000418  -0.000688
     9  C  -10.808068   0.000001  -0.000021  -0.000048  -0.000450   0.000024
    10  C   -2.962445  -0.000002  -0.000003   0.000004   0.000222   0.000039
    11  C    1.910980  -0.000000  -0.000000   0.000000   0.000004   0.000002
    12  C   -0.808716  -0.000000   0.000000  -0.000000  -0.000001  -0.000001
    13  C   19.696415   0.000000  -0.000003  -0.000004  -0.000033   0.000003
    14  H    0.000000   0.499377  -0.025525  -0.025246  -0.003264  -0.003206
    15  H   -0.000003  -0.025525   0.505357  -0.030000  -0.004693   0.003863
    16  H   -0.000004  -0.025246  -0.030000   0.504089   0.003925  -0.004595
    17  H   -0.000033  -0.003264  -0.004693   0.003925   0.490526  -0.028210
    18  H    0.000003  -0.003206   0.003863  -0.004595  -0.028210   0.482321
    19  H    0.000128  -0.000068  -0.000328   0.002906   0.003964  -0.005324
    20  H   -0.000506  -0.000065   0.003059  -0.000378  -0.005491   0.003970
    21  H   -0.000011  -0.000001  -0.000000  -0.000000   0.000556   0.000610
    22  H    0.017456  -0.000000  -0.000000   0.000000   0.000002   0.000002
    23  H   -0.006023   0.000000  -0.000000  -0.000000  -0.000000  -0.000000
    24  H   -0.038854  -0.000000  -0.000000   0.000000  -0.000000   0.000000
    25  H    0.062194  -0.000000   0.000000   0.000000   0.000000  -0.000000
    26  S    0.844541  -0.000000  -0.000000  -0.000000  -0.000000  -0.000000
    27  C   -0.076355   0.000000   0.000000   0.000000   0.000000   0.000000
    28  F   -0.071317   0.000000   0.000000  -0.000000   0.000000   0.000000
    29  F   -0.005628   0.000000   0.000000   0.000000   0.000000  -0.000000
    30  F    0.105839   0.000000   0.000000   0.000000  -0.000000   0.000000
    31  H    0.311929  -0.000000   0.000000   0.000000   0.000000   0.000000
    32  O    0.001614  -0.000018  -0.000007  -0.000003  -0.000956  -0.001171
    33  O   -0.002054  -0.000000   0.000000   0.000000  -0.000007  -0.000009
    34  C   -0.002016  -0.000044  -0.000009   0.000005   0.000080  -0.000320
    35  C   -0.000431   0.000021  -0.000002  -0.000001   0.000200  -0.000110
    36  C   -0.000859  -0.000000   0.000000   0.000000  -0.000010  -0.000009
    37  H    0.000001  -0.000000  -0.000000   0.000000   0.000000   0.000000
    38  H   -0.000001  -0.000000  -0.000000  -0.000000   0.000000  -0.000000
    39  H   -0.000011   0.000000  -0.000000  -0.000000  -0.000000  -0.000000
    40  H    0.000000   0.000000  -0.000000  -0.000000  -0.000000  -0.000000
    41  H    0.000006   0.000000  -0.000000  -0.000000  -0.000000  -0.000000
              19         20         21         22         23         24
     1  C   -0.007436  -0.004031   0.000709   0.000173   0.000001  -0.000001
     2  C   -0.049927  -0.056095   0.000299   0.000519   0.000073   0.000015
     3  C    0.445745   0.455581  -0.061133   0.006699   0.000679  -0.000167
     4  N   -0.056186  -0.058912   0.173166   0.029836  -0.000453   0.000763
     5  C   -0.026228  -0.031603   0.024647  -0.017977  -0.001927   0.000895
     6  O    0.001299   0.001321   0.004470   0.004147  -0.005267   0.000063
     7  N   -0.000893   0.000308   0.030236   0.165343  -0.012866  -0.003964
     8  C   -0.001392   0.000070   0.012484   0.019259   0.021714   0.024748
     9  C   -0.000934  -0.002291  -0.002714   0.032923   0.256194   0.049023
    10  C    0.000478   0.000028   0.004737  -0.087147   0.050083   0.217936
    11  C    0.000031   0.000007   0.000391   0.012461  -0.031122   0.020579
    12  C   -0.000002  -0.000030  -0.000027  -0.000895   0.033093   0.029150
    13  C    0.000128  -0.000506  -0.000011   0.017456  -0.006023  -0.038854
    14  H   -0.000068  -0.000065  -0.000001  -0.000000   0.000000  -0.000000
    15  H   -0.000328   0.003059  -0.000000  -0.000000  -0.000000  -0.000000
    16  H    0.002906  -0.000378  -0.000000   0.000000  -0.000000   0.000000
    17  H    0.003964  -0.005491   0.000556   0.000002  -0.000000  -0.000000
    18  H   -0.005324   0.003970   0.000610   0.000002  -0.000000   0.000000
    19  H    0.523218  -0.042603   0.001661   0.000005  -0.000000  -0.000000
    20  H   -0.042603   0.526940   0.001628   0.000004  -0.000001   0.000000
    21  H    0.001661   0.001628   0.256166   0.004363   0.000001   0.000004
    22  H    0.000005   0.000004   0.004363   0.262483  -0.000084   0.004825
    23  H   -0.000000  -0.000001   0.000001  -0.000084   0.433762  -0.000098
    24  H   -0.000000   0.000000   0.000004   0.004825  -0.000098   0.446574
    25  H    0.000000  -0.000000   0.000000  -0.000008   0.000011  -0.004123
    26  S    0.000000  -0.000001  -0.000002   0.000312  -0.000573  -0.000049
    27  C    0.000000   0.000000  -0.000000  -0.000023  -0.000367  -0.000125
    28  F    0.000000  -0.000000   0.000000  -0.000000  -0.000001  -0.000001
    29  F    0.000000  -0.000000   0.000000  -0.000000  -0.000000  -0.000001
    30  F    0.000000  -0.000000   0.000000  -0.000000   0.000006  -0.000005
    31  H    0.000000  -0.000000  -0.000000   0.000001  -0.004716   0.000012
    32  O   -0.000044  -0.000056   0.052310   0.001414   0.000001  -0.000016
    33  O   -0.000006  -0.000002  -0.000447   0.045826   0.000007  -0.002304
    34  C    0.000299   0.000199  -0.004788  -0.005026  -0.000021  -0.000379
    35  C    0.000032   0.000015   0.005716   0.007630  -0.000003   0.001574
    36  C   -0.000000   0.000001  -0.001062  -0.000962  -0.000000  -0.000184
    37  H   -0.000000  -0.000000  -0.000002  -0.000007   0.000000  -0.000000
    38  H   -0.000000  -0.000000  -0.000001  -0.000007   0.000000   0.000000
    39  H   -0.000000   0.000000   0.000000  -0.000002   0.000000   0.000001
    40  H   -0.000000  -0.000000   0.000000   0.000000  -0.000000   0.000000
    41  H    0.000000  -0.000000   0.000000  -0.000002   0.000000  -0.000001
              25         26         27         28         29         30
     1  C    0.000000  -0.000008   0.000001  -0.000000   0.000000  -0.000000
     2  C    0.000000   0.000016  -0.000003   0.000000  -0.000000   0.000000
     3  C    0.000022  -0.001570   0.000174  -0.000003  -0.000000  -0.000011
     4  N   -0.000001  -0.000422   0.000058   0.000000   0.000000  -0.000002
     5  C    0.003356  -0.060705   0.010086  -0.000618  -0.000018  -0.001785
     6  O   -0.000001   0.000601  -0.000023   0.000000   0.000000  -0.000003
     7  N    0.000207  -0.005058   0.001127  -0.000002   0.000002  -0.000071
     8  C    0.048167  -0.190160   0.073756  -0.015735  -0.003383  -0.021147
     9  C   -0.048439  -1.047702   0.184881   0.012763   0.005427  -0.055540
    10  C   -0.139715  -0.111477  -0.011435   0.025358   0.005891   0.042029
    11  C    0.396376   0.169015   0.103330   0.041218  -0.009829  -0.119676
    12  C   -0.005734  -0.509485  -0.135214   0.008391   0.023219   0.049739
    13  C    0.062194   0.844541  -0.076355  -0.071317  -0.005628   0.105839
    14  H   -0.000000  -0.000000   0.000000   0.000000   0.000000   0.000000
    15  H    0.000000  -0.000000   0.000000   0.000000   0.000000   0.000000
    16  H    0.000000  -0.000000   0.000000  -0.000000   0.000000   0.000000
    17  H    0.000000  -0.000000   0.000000   0.000000   0.000000  -0.000000
    18  H   -0.000000  -0.000000   0.000000   0.000000  -0.000000   0.000000
    19  H    0.000000   0.000000   0.000000   0.000000   0.000000   0.000000
    20  H   -0.000000  -0.000001   0.000000  -0.000000  -0.000000  -0.000000
    21  H    0.000000  -0.000002  -0.000000   0.000000   0.000000   0.000000
    22  H   -0.000008   0.000312  -0.000023  -0.000000  -0.000000  -0.000000
    23  H    0.000011  -0.000573  -0.000367  -0.000001  -0.000000   0.000006
    24  H   -0.004123  -0.000049  -0.000125  -0.000001  -0.000001  -0.000005
    25  H    0.464983  -0.009525  -0.001508  -0.000421  -0.000081   0.000069
    26  S   -0.009525  16.592992   0.094710  -0.069799  -0.089055  -0.064342
    27  C   -0.001508   0.094710   4.765809   0.141161   0.153690   0.142386
    28  F   -0.000421  -0.069799   0.141161   9.290689  -0.032515  -0.048873
    29  F   -0.000081  -0.089055   0.153690  -0.032515   9.283149  -0.031079
    30  F    0.000069  -0.064342   0.142386  -0.048873  -0.031079   9.277731
    31  H   -0.000146  -0.011018   0.000030   0.000021  -0.000065  -0.000899
    32  O    0.000000  -0.000009   0.000000   0.000000   0.000000  -0.000000
    33  O    0.000001  -0.000031   0.000004   0.000000   0.000000   0.000000
    34  C   -0.000021  -0.000160   0.000021   0.000001   0.000000   0.000001
    35  C   -0.000009  -0.000079   0.000018  -0.000001  -0.000000  -0.000000
    36  C   -0.000004   0.000016  -0.000003   0.000000   0.000000   0.000000
    37  H   -0.000000   0.000000  -0.000000  -0.000000  -0.000000   0.000000
    38  H    0.000000  -0.000000   0.000000   0.000000   0.000000  -0.000000
    39  H    0.000000  -0.000000   0.000000   0.000000   0.000000  -0.000000
    40  H   -0.000000  -0.000000  -0.000000  -0.000000  -0.000000  -0.000000
    41  H   -0.000000   0.000000  -0.000000  -0.000000  -0.000000  -0.000000
              31         32         33         34         35         36
     1  C   -0.000000   0.006158  -0.000033  -0.002436   0.002376  -0.000282
     2  C    0.000002   0.013590  -0.001084  -0.003621  -0.000398  -0.000309
     3  C    0.000029  -0.020486   0.009344   0.000637   0.016526  -0.001136
     4  N    0.000006  -0.034515   0.008948  -0.007462  -0.009964   0.002045
     5  C    0.001570   0.002725   0.022141  -0.015411  -0.014119   0.001933
     6  O    0.000255  -0.000248  -0.000064  -0.000739  -0.000571   0.000040
     7  N   -0.000810   0.014800  -0.010989  -0.003119  -0.017789   0.002940
     8  C    0.033079  -0.005439  -0.113353   0.006686   0.015800  -0.017201
     9  C   -0.045252  -0.007477  -0.003953  -0.006757   0.003081  -0.001800
    10  C   -0.057038   0.011210   0.054650   0.018985  -0.021375   0.010079
    11  C    0.068747  -0.001184   0.043323  -0.021504  -0.005670   0.007737
    12  C    0.004407  -0.000248  -0.000734   0.002160  -0.001700   0.000776
    13  C    0.311929   0.001614  -0.002054  -0.002016  -0.000431  -0.000859
    14  H   -0.000000  -0.000018  -0.000000  -0.000044   0.000021  -0.000000
    15  H    0.000000  -0.000007   0.000000  -0.000009  -0.000002   0.000000
    16  H    0.000000  -0.000003   0.000000   0.000005  -0.000001   0.000000
    17  H    0.000000  -0.000956  -0.000007   0.000080   0.000200  -0.000010
    18  H    0.000000  -0.001171  -0.000009  -0.000320  -0.000110  -0.000009
    19  H    0.000000  -0.000044  -0.000006   0.000299   0.000032  -0.000000
    20  H   -0.000000  -0.000056  -0.000002   0.000199   0.000015   0.000001
    21  H   -0.000000   0.052310  -0.000447  -0.004788   0.005716  -0.001062
    22  H    0.000001   0.001414   0.045826  -0.005026   0.007630  -0.000962
    23  H   -0.004716   0.000001   0.000007  -0.000021  -0.000003  -0.000000
    24  H    0.000012  -0.000016  -0.002304  -0.000379   0.001574  -0.000184
    25  H   -0.000146   0.000000   0.000001  -0.000021  -0.000009  -0.000004
    26  S   -0.011018  -0.000009  -0.000031  -0.000160  -0.000079   0.000016
    27  C    0.000030   0.000000   0.000004   0.000021   0.000018  -0.000003
    28  F    0.000021   0.000000   0.000000   0.000001  -0.000001   0.000000
    29  F   -0.000065   0.000000   0.000000   0.000000  -0.000000   0.000000
    30  F   -0.000899  -0.000000   0.000000   0.000001  -0.000000   0.000000
    31  H    0.469044  -0.000000  -0.000000  -0.000001  -0.000000   0.000000
    32  O   -0.000000   8.639041  -0.196007   0.511553  -0.271947   0.025357
    33  O   -0.000000  -0.196007   8.587752   0.304406  -0.171245   0.060563
    34  C   -0.000001   0.511553   0.304406   5.380757  -0.598539  -0.033767
    35  C   -0.000000  -0.271947  -0.171245  -0.598539   7.088560  -0.250966
    36  C    0.000000   0.025357   0.060563  -0.033767  -0.250966   5.791260
    37  H    0.000000  -0.002315   0.001619  -0.060861   0.428780  -0.052809
    38  H    0.000000  -0.001722   0.001115  -0.064804   0.430063  -0.050051
    39  H   -0.000000   0.000023  -0.004950  -0.003374  -0.053439   0.410393
    40  H    0.000000  -0.000135   0.001857   0.030071  -0.080636   0.389352
    41  H   -0.000000  -0.000054  -0.004556  -0.006820  -0.047795   0.407593
              37         38         39         40         41
     1  C    0.000001   0.000007   0.000000   0.000000   0.000000
     2  C    0.000005   0.000026   0.000007   0.000002   0.000006
     3  C    0.000001  -0.000008  -0.000011  -0.000002  -0.000008
     4  N   -0.000038  -0.000049   0.000000  -0.000002  -0.000002
     5  C   -0.000006  -0.000123  -0.000116   0.000012  -0.000009
     6  O   -0.000000  -0.000000  -0.000000   0.000000  -0.000000
     7  N    0.000067   0.000059  -0.000014   0.000005   0.000011
     8  C   -0.000548  -0.000188  -0.000101   0.000069  -0.001304
     9  C   -0.000037  -0.000037   0.000008   0.000003  -0.000082
    10  C    0.000484   0.000197   0.000247  -0.000068   0.000688
    11  C    0.000070  -0.000026  -0.000495  -0.000021   0.000644
    12  C   -0.000001   0.000000   0.000025  -0.000000   0.000022
    13  C    0.000001  -0.000001  -0.000011   0.000000   0.000006
    14  H   -0.000000  -0.000000   0.000000   0.000000   0.000000
    15  H   -0.000000  -0.000000  -0.000000  -0.000000  -0.000000
    16  H    0.000000  -0.000000  -0.000000  -0.000000  -0.000000
    17  H    0.000000   0.000000  -0.000000  -0.000000  -0.000000
    18  H    0.000000  -0.000000  -0.000000  -0.000000  -0.000000
    19  H   -0.000000  -0.000000  -0.000000  -0.000000   0.000000
    20  H   -0.000000  -0.000000   0.000000  -0.000000  -0.000000
    21  H   -0.000002  -0.000001   0.000000   0.000000   0.000000
    22  H   -0.000007  -0.000007  -0.000002   0.000000  -0.000002
    23  H    0.000000   0.000000   0.000000  -0.000000   0.000000
    24  H   -0.000000   0.000000   0.000001   0.000000  -0.000001
    25  H   -0.000000   0.000000   0.000000  -0.000000  -0.000000
    26  S    0.000000  -0.000000  -0.000000  -0.000000   0.000000
    27  C   -0.000000   0.000000   0.000000  -0.000000  -0.000000
    28  F   -0.000000   0.000000   0.000000  -0.000000  -0.000000
    29  F   -0.000000   0.000000   0.000000  -0.000000  -0.000000
    30  F    0.000000  -0.000000  -0.000000  -0.000000  -0.000000
    31  H    0.000000   0.000000  -0.000000   0.000000  -0.000000
    32  O   -0.002315  -0.001722   0.000023  -0.000135  -0.000054
    33  O    0.001619   0.001115  -0.004950   0.001857  -0.004556
    34  C   -0.060861  -0.064804  -0.003374   0.030071  -0.006820
    35  C    0.428780   0.430063  -0.053439  -0.080636  -0.047795
    36  C   -0.052809  -0.050051   0.410393   0.389352   0.407593
    37  H    0.492635  -0.023928  -0.003935  -0.002409   0.003649
[...]
 0.00001725,0.00000368,-0.00000712,0.00000222,0.00000211,-0.00000159,0.
 00000752,-0.00000091,-0.00000637,0.00001978,0.00002037,0.00000806,-0.0
 0000519,-0.00000885,0.00000279,-0.00001884,-0.00000696,-0.00000595,-0.
 00000267,-0.00000639,-0.00000444,-0.00000219,-0.00000249,0.00000033,0.
 00148117,-0.00055682,0.00047537,0.00080474,0.00030079,-0.00086018,0.00
 124798,0.00426337,0.00305175,-0.11486886,-0.06855121,-0.17920740,0.002
 66854,0.00166076,0.00260597,0.12627734,0.07338269,0.19335471,0.0000052
 4,0.00000661,0.00000107,-0.00000792,-0.00001195,-0.00000260,0.00001939
 ,-0.00000809,0.00000994,0.00007679,0.00008301,-0.00001021,-0.00020328,
 -0.00002046,0.00003403,0.00004823,0.00000977,-0.00001458,0.00007167,-0
 .00018529,0.00000323,-0.00002839,-0.00002700,0.00001185,0.00000554,0.0
 0000227,-0.00000520,0.00001359,0.00001728,-0.00001813,-0.00000663,-0.0
 0000176,-0.00000398,0.00001048,-0.00000520,-0.00000368,-0.00001138,-0.
 00000715,0.00000152,-0.00000458,-0.00000009,0.00000011,-0.00000237,0.0
 0000096,-0.00000126,-0.00000154,-0.00000018,0.00000022,0.00000773,0.00
 000289,0.00000076,0.00001086,0.00000589,-0.00000162,-0.00000085,0.0000
 0033,0.00000183,-0.00000169,0.00000196,-0.00000452,-0.00002886,-0.0001
 7208,-0.00002133,-0.00002428,0.00025576,-0.00004108,-0.00000334,-0.000
 00322,0.00000330,0.00000929,0.00002391,0.00002073,0.00000769,0.0000043
 9,0.00000588,-0.00000292,-0.00000270,-0.00000321,0.00000033,0.00000783
 ,0.00003354,0.00000037,0.00000202,-0.00001100,-0.00000249,-0.00000201,
 -0.00000675,0.00000388,-0.00000818,-0.00001364,-0.00000087,-0.00000153
 ,0.00000163,-0.00029206,0.00169957,-0.00076300,0.00030774,-0.00190740,
 -0.00073072,-0.00326572,-0.00121852,0.00296605,-0.09486145,-0.02174366
 ,0.10133152,-0.01311503,-0.00583532,0.02668857,0.00878033,0.00483091,-
 0.01797063,0.10558012,0.00000120,0.00000370,-0.00000191,0.00001378,-0.
 00001677,0.00001401,-0.00005721,0.00003522,0.00000968,0.00007591,-0.00
 001004,0.00003778,-0.00025553,0.00011561,0.00004927,0.00007366,-0.0001
 5646,-0.00002413,-0.00003939,-0.00063951,0.00014789,0.00026862,0.00001
 207,-0.00002425,-0.00006395,-0.00004022,0.00000042,-0.00008899,0.00007
 668,0.00000270,0.00003749,-0.00000774,-0.00000088,-0.00004294,-0.00002
 021,0.00001237,0.00001606,-0.00001495,-0.00000022,0.00000799,-0.000000
 15,0.00000227,-0.00000065,0.00000141,-0.00000256,0.00000232,-0.0000054
 4,-0.00000058,-0.00000717,0.00000232,-0.00000919,-0.00000581,0.0000012
 1,0.00000280,0.00000845,-0.00001369,-0.00000404,0.00001497,-0.00000705
 ,-0.00000024,-0.00005502,0.00012405,-0.00014350,-0.00001014,0.00103310
 ,-0.00031105,0.00000463,0.00000158,0.00000127,0.00008728,0.00000708,-0
 .00000523,-0.00000976,0.00000038,0.00000210,0.00001515,0.00000152,-0.0
 0001067,0.00001129,-0.00000658,0.00004386,-0.00000289,0.00001064,-0.00
 001748,-0.00001821,-0.00000316,-0.00001410,-0.00000146,-0.00000300,-0.
 00001210,-0.00000603,-0.00000391,0.00000271,0.00096494,-0.00012994,-0.
 00391414,-0.00195485,-0.00638980,-0.00336844,-0.01395952,-0.00387104,0
 .03360025,-0.02193693,-0.05604975,0.05129830,0.00739349,0.00265611,-0.
 01482634,0.00570047,0.00245756,-0.01140212,0.02198149,0.06115037,0.000
 00264,0.00000154,0.00000449,-0.00001442,0.00000754,-0.00002334,0.00006
 888,-0.00002725,-0.00001158,-0.00005882,0.00006821,0.00001545,0.000143
 96,-0.00009175,-0.00002171,-0.00004194,0.00009872,0.00000509,0.0000076
 9,0.00025099,0.00000383,-0.00010128,-0.00000016,0.00000930,0.00002452,
 0.00001983,-0.00000209,0.00003270,-0.00003972,0.00000377,-0.00002032,-
 0.00000147,0.00000430,0.00001245,0.00001497,-0.00000689,-0.00000163,0.
 00001109,-0.00000135,-0.00001536,-0.00000068,-0.00000224,0.00000115,-0
 .00000440,0.00000338,-0.00000165,0.00000359,0.00000044,0.00000970,0.00
 000397,-0.00000146,0.00001027,0.00000571,0.00001178,-0.00001088,0.0000
 0977,0.00000587,-0.00001392,0.00000196,-0.00000019,0.00001833,-0.00010
 289,0.00001867,-0.00001425,-0.00038192,0.00000329,-0.00000050,0.000000
 04,-0.00000234,-0.00003623,-0.00001151,-0.00000574,-0.00000269,-0.0000
 0356,-0.00000228,-0.00001052,0.00000098,0.00001076,-0.00002335,-0.0000
 1964,-0.00004355,0.00000569,0.00000216,0.00001097,0.00002495,0.0000084
 1,0.00001438,0.00000091,0.00001148,0.00001652,0.00000363,0.00000381,-0
 .00000182,-0.00138275,0.00063972,0.00156992,-0.00060966,0.00125747,-0.
 00001050,0.00280925,-0.00235580,-0.00299610,0.10033614,0.04787974,-0.2
 5183280,-0.00062515,-0.00026990,0.00045397,0.01007979,0.00536667,-0.02
 144678,-0.11106445,-0.05145747,0.27186133,0.00000205,0.00000001,-0.000
 00371,0.00000151,-0.00000237,0.00001690,0.00000598,-0.00000400,0.00000
 505,0.00001293,0.00007511,-0.00003214,-0.00004611,-0.00002063,0.000023
 06,0.00001080,0.00002770,-0.00001050,-0.00000751,0.00000533,-0.0000178
 2,0.00002467,0.00000627,-0.00000057,-0.00000496,0.00000509,-0.00000233
 ,-0.00001854,-0.00001081,-0.00000252,0.00001224,-0.00000473,-0.0000019
 2,-0.00000740,0.00000163,0.00000024,0.00000402,0.00000435,-0.00000184,
 0.00000205,-0.00000093,0.00000222,-0.00000310,0.00000565,-0.00000330,-
 0.00000041,-0.00000044,0.00000049,0.00000018,-0.00000435,0.00000464,0.
 00000150,-0.00000333,-0.00001360,-0.00000102,0.00000115,-0.00000031,-0
 .00000120,0.00000852,-0.00000357,-0.00000140,-0.00011313,0.00002104,0.
 00000473,-0.00000791,0.00001638,0.00000021,0.00000164,0.00000223,0.000
 01622,-0.00000698,0.00000404,-0.00000944,-0.00000624,0.00000052,-0.000
 00009,0.00000254,0.00000246,-0.00000484,-0.00001600,-0.00000035,0.0000
 0137,0.00000835,-0.00000405,0.00000564,0.00000368,0.00000121,-0.000000
 56,0.00000483,0.00000233,0.00000005,0.00000193,0.00000073,0.00040856,0
 .00038709,-0.00041354,0.00104320,-0.00016996,-0.00090426,-0.00078893,-
 0.00176864,0.00054763,-0.01348755,-0.00554451,0.02803818,-0.09692305,-
 0.02194830,0.10244568,0.00092713,-0.00089535,-0.00024912,-0.00523967,0
 .00336469,-0.00018556,0.10707352,0.00000095,-0.00000184,0.00000056,-0.
 00000341,0.00000463,-0.00000045,0.00003661,-0.00001861,-0.00000384,-0.
 00004049,0.00003241,0.00000946,0.00010439,-0.00007967,-0.00001432,-0.0
 0002927,0.00007754,0.00000147,0.00000926,0.00018440,-0.00001516,-0.000
 05279,0.00001233,0.00001533,0.00001163,0.00001415,-0.00000242,0.000013
 59,-0.00005043,0.00001464,-0.00002444,0.00000369,0.00000533,0.00000898
 ,0.00001659,-0.00001048,0.00000477,0.00001294,-0.00000280,-0.00000505,
 -0.00000078,0.00000036,-0.00000043,0.00000123,-0.00000046,-0.00000105,
 0.00000178,0.00000051,0.00000512,-0.00000023,0.00000247,0.00000310,-0.
 00000079,-0.00000200,-0.00000678,0.00000661,0.00000313,-0.00000629,0.0
 0000513,-0.00000202,0.00001847,-0.00007815,0.00000058,-0.00003228,-0.0
 0031121,0.00002369,0.00000038,0.00000209,-0.00000130,-0.00003515,-0.00
 003146,-0.00002899,-0.00000584,-0.00000477,-0.00000152,-0.00001018,0.0
 0000170,0.00001074,-0.00002375,-0.00000701,-0.00003505,0.00000583,-0.0
 0000185,0.00001034,0.00002432,0.00000594,0.00001267,0.00000347,0.00000
 500,0.00001022,0.00000284,0.00000395,-0.00000072,-0.00062020,0.0001197
 2,0.00020873,-0.00085173,-0.00076695,0.00088059,0.00118720,0.00045895,
 -0.00102268,0.00623462,0.00282708,-0.01414757,-0.02294022,-0.05710081,
 0.04669203,-0.00072511,0.00044397,0.00032357,0.00300174,-0.00114379,-0
 .00024318,0.02266821,0.05876426,-0.00000304,-0.00000261,0.00000159,-0.
 00000161,0.00001119,-0.00000928,0.00001089,-0.00000621,-0.00000598,-0.
 00008137,-0.00008668,0.00003257,0.00017411,-0.00001932,-0.00002578,-0.
 00004447,-0.00000024,0.00001101,-0.00011794,0.00003590,0.00002733,0.00
 012504,0.00004308,-0.00001970,-0.00003002,-0.00000872,0.00000545,-0.00
 005208,-0.00001532,0.00003258,0.00002050,-0.00000440,0.00000568,-0.000
 03099,0.00000892,0.00000347,0.00002515,0.00001258,-0.00000317,-0.00000
 380,0.00000052,-0.00000084,0.00000230,-0.00000307,0.00000328,0.0000005
 8,0.00000044,-0.00000131,0.00000033,0.00000141,-0.00000294,-0.00000056
 ,-0.00000082,0.00000812,-0.00000395,0.00000223,0.00000032,-0.00000240,
 -0.00000280,0.00000324,0.00001828,0.00009553,-0.00002130,-0.00000678,-
 0.00004767,-0.00002412,0.00000649,0.00000631,-0.00000406,0.00001126,-0
 .00007120,-0.00003701,-0.00002303,-0.00001128,-0.00000696,0.00000413,0
 .00000592,0.00000734,-0.00001206,-0.00002896,-0.00004892,0.00000245,0.
 00000598,0.00001129,0.00001291,0.00000738,0.00001154,-0.00000466,0.000
 01682,0.00002192,0.00000018,0.00000345,-0.00000157,-0.00054742,-0.0006
 1739,0.00004553,-0.00193296,0.00057541,0.00044762,0.00183915,0.0017020
 5,-0.00024552,-0.00017649,-0.00055220,-0.00020563,0.10334053,0.0449247
 6,-0.26233608,0.00035620,-0.00029660,0.00071822,0.00012802,0.00007639,
 0.00159767,-0.11303304,-0.05148109,0.28209391,0.00000916,0.00000553,-0
 .00000160,-0.00001256,-0.00000900,0.00000309,0.00006411,-0.00001924,-0
 .00000577,0.00012313,0.00036965,-0.00002728,-0.00028039,-0.00006141,0.
 00002766,0.00006971,0.00010879,-0.00001244,0.00015049,0.00002469,-0.00
 001281,-0.00016037,-0.00004966,0.00001572,0.00003904,0.00002422,-0.000
 00463,0.00005794,0.00000292,-0.00000294,-0.00000984,-0.00000266,0.0000
 0049,0.00003042,-0.00000161,-0.00000364,-0.00002450,-0.00000491,0.0000
 0236,-0.00000630,-0.00000175,0.00000057,-0.00000508,0.00000530,-0.0000
 0244,-0.00000446,0.00000528,0.00000278,0.00001402,-0.00000359,0.000017
 32,0.00001137,-0.00000566,-0.00001921,-0.00000928,0.00001445,0.0000059
 4,-0.00001047,0.00001441,-0.00000575,-0.00005364,-0.00055154,0.0000306
 6,-0.00001982,-0.00007545,0.00000603,-0.00000843,-0.00000633,0.0000013
 3,-0.00002596,0.00003409,-0.00000478,0.00001317,0.00000415,-0.00000159
 ,-0.00000628,-0.00000443,-0.00000001,0.00000858,0.00001370,-0.00000133
 ,-0.00000240,-0.00000732,0.00000404,-0.00000426,-0.00000248,0.00000010
 ,-0.00000029,-0.00000369,-0.00000133,0.00000110,-0.00000052,-0.0000000
 7,-0.00103117,0.00370664,-0.00029366,0.00213805,-0.00016459,-0.0001247
 4,-0.00676522,-0.00297896,0.00106228,0.00395700,0.03312997,-0.00372870
 ,-0.05042484,-0.02561325,0.00269468,0.00115320,-0.00078575,-0.00041055
 ,0.00118429,-0.00078404,0.00029773,-0.00209751,-0.01361628,-0.00033961
 ,0.05379000,-0.00001293,-0.00000273,0.00000148,0.00001482,0.00000707,-
 0.00000293,-0.00012498,0.00005592,0.00001023,-0.00004598,-0.00039874,0
 .00002183,0.00010218,0.00025179,-0.00002528,-0.00001568,-0.00027292,0.
 00001858,-0.00019388,-0.00035890,0.00003823,0.00027951,0.00003659,-0.0
 0002606,-0.00006647,-0.00005888,0.00000966,-0.00009105,0.00008320,-0.0
 0000097,0.00005494,0.00000627,-0.00000196,-0.00004706,-0.00003099,0.00
 002329,0.00001989,-0.00002044,0.00000221,0.00001332,0.00000538,-0.0000
 0085,0.00000781,-0.00000982,0.00000625,0.00000655,-0.00001058,-0.00000
 678,-0.00002124,0.00000359,-0.00002536,-0.00001820,0.00000742,0.000028
 41,0.00001834,-0.00002650,-0.00001365,0.00002041,-0.00002601,0.0000126
 1,-0.00001324,0.00067933,-0.00003574,0.00009383,0.00065766,-0.00005298
 ,0.00000831,0.00000288,-0.00000105,0.00007725,0.00004095,-0.00001355,0
 .00000071,0.00000681,-0.00000100,0.00002984,0.00000195,-0.00002385,0.0
 0005695,0.00001653,0.00006931,-0.00001430,0.00000227,-0.00001979,-0.00
 005742,-0.00001437,-0.00002777,-0.00000960,-0.00001004,-0.00002023,-0.
 00000659,-0.00000789,0.00000179,0.00184816,-0.00264328,0.00012699,0.00
 073464,-0.00124139,0.00010542,0.00095477,0.00277972,-0.00038717,-0.003
 69775,-0.01302842,0.00154682,-0.02500647,-0.30730890,0.02774211,0.0001
 8368,0.00048658,0.00044129,0.00005303,0.00033362,-0.00056188,-0.000705
 53,-0.00511842,0.00049115,0.02638363,0.33543918,0.00000010,-0.00000018
 ,-0.00000052,0.00000028,0.00000049,0.00000404,0.00000339,-0.00000229,0
 .00000051,-0.00000820,-0.00000582,0.00000342,0.00001871,-0.00001226,-0
 .00000469,-0.00000543,0.00000939,0.00000099,0.00000108,0.00002317,0.00
 001188,-0.00000643,0.00000095,-0.00000226,0.00000152,0.00000184,0.0000
 0018,0.00000351,-0.00000324,0.00001604,-0.00000241,0.00000005,0.000005
 83,0.00000037,0.00000194,-0.00000263,0.00000070,0.00000188,0.00000001,
 -0.00000049,-0.00000020,0.00000100,-0.00000007,0.00000098,-0.00000063,
 -0.00000015,-0.00000067,-0.00000024,0.00000072,0.00000023,-0.00000107,
 -0.00000019,-0.00000010,-0.00000088,-0.00000080,0.00000013,0.00000015,
 -0.00000026,0.00000085,-0.00000067,0.00000592,0.00000231,-0.00000157,-
 0.00000587,-0.00004266,-0.00001139,0.00000012,0.00000028,-0.00000052,-
 0.00000681,-0.00000618,-0.00003489,-0.00000160,-0.00000099,-0.00000373
 ,-0.00000151,-0.00000019,0.00000184,-0.00000285,0.00000195,-0.00000820
 ,0.00000035,-0.00000224,0.00000327,0.00000313,0.00000042,0.00000224,0.
 00000039,0.00000030,0.00000214,0.00000032,0.00000060,-0.00000021,-0.00
 002390,-0.00015168,0.00004157,-0.00019623,0.00010048,0.00066202,0.0006
 1131,0.00004947,0.00056212,-0.00027090,-0.00240866,-0.00080027,0.00261
 195,0.02787779,-0.05336017,0.00004988,0.00036805,-0.00002633,-0.000321
 32,-0.00028615,0.00008817,0.00171073,0.02960116,-0.00144475,-0.0034751
 0,-0.03094872,0.05064685,0.00000307,0.00000088,0.00000255,0.00000012,-
 0.00000636,-0.00001371,-0.00000445,0.00000008,-0.00000744,0.00004011,0
 .00008558,0.00002191,-0.00009780,-0.00000444,-0.00001181,0.00002548,0.
 00001380,0.00000697,0.00001526,-0.00003524,0.00002245,0.00001141,-0.00
 000461,-0.00000667,-0.00000162,0.00000418,0.00000385,-0.00000969,0.000
 00205,0.00001607,0.00001077,-0.00000317,0.00000182,-0.00000306,-0.0000
 0226,0.00000245,-0.00000091,0.00000004,0.00000022,0.00000348,-0.000001
 00,-0.00000233,-0.00000063,-0.00000022,-0.00000069,-0.00000264,0.00000
 576,0.00000366,0.00000266,-0.00000141,0.00001388,-0.00000222,-0.000005
 62,-0.00000578,0.00000089,0.00000800,0.00000292,0.00000103,0.00000038,
 0.00000055,-0.00001124,-0.00011398,-0.00000849,0.00001088,0.00005932,-
 0.00002669,-0.00000134,-0.00000016,-0.00000290,0.00001882,0.00001265,-
 0.00002407,-0.00000429,-0.00000322,-0.00000177,0.00000197,0.00000055,0
 .00000084,0.00000595,0.00000138,-0.00002070,-0.00000189,-0.00000420,0.
 00000872,-0.00000314,-0.00000063,0.00000320,-0.00000332,0.00000318,0.0
 0000771,-0.00000074,0.00000035,-0.00000097,0.00075048,0.00052140,0.000
 19823,0.00175768,0.00036767,0.00047583,-0.00152267,-0.00215475,-0.0000
 4148,-0.01906707,-0.01031710,-0.02273276,-0.14623972,-0.05726177,-0.11
 821881,-0.00498022,0.00342994,0.00101411,0.00096176,-0.00074341,0.0003
 4498,0.00908476,0.00568527,0.01036980,-0.00185175,-0.00081423,-0.00069
 399,0.16110386,0.00000168,-0.00000130,-0.00000059,-0.00000338,0.000002
 02,0.00000012,0.00003575,-0.00001868,-0.00000282,-0.00002502,0.0000500
 0,-0.00000291,0.00007315,-0.00008029,0.00000667,-0.00002148,0.00008166
 ,-0.00000625,0.00003682,0.00018535,-0.00001077,-0.00008633,-0.00000008
 ,-0.00000458,0.00001839,0.00001757,-0.00000053,0.00002494,-0.00005354,
 -0.00000372,-0.00003206,0.00000608,-0.00000224,0.00001757,0.00001659,-
 0.00000806,0.00000008,0.00001114,-0.00000263,-0.00000450,-0.00000094,0
 .00000012,-0.00000142,0.00000175,-0.00000085,-0.00000078,0.00000206,0.
 00000120,0.00000396,-0.00000015,0.00000321,0.00000515,-0.00000106,-0.0
 0000408,-0.00000574,0.00000603,0.00000338,-0.00000634,0.00000629,-0.00
 000281,0.00001479,-0.00010068,0.00000380,-0.00003023,-0.00031186,0.000
 02151,-0.00000080,0.00000107,0.00000062,-0.00003695,-0.00001689,0.0000
 3309,-0.00000044,-0.00000208,0.00000080,-0.00001127,0.00000013,0.00001
 064,-0.00002666,0.00000332,-0.00003517,0.00000705,-0.00000670,0.000012
 97,0.00002485,0.00000441,0.00001314,0.00000569,0.00000114,0.00000825,0
 .00000287,0.00000331,-0.00000095,-0.00061869,0.00022341,-0.00013764,-0
 .00010358,-0.00021653,-0.00036373,0.00102527,0.00026461,0.00074918,0.0
 0928192,0.00562750,0.01179969,-0.05863149,-0.08034993,-0.06937041,0.00
 306474,-0.00119111,0.00007181,-0.00082983,0.00050898,-0.00009520,0.004
 65033,0.00171067,0.00522915,-0.01909329,-0.01031547,-0.02417249,0.0612
 7528,0.08393220,0.00000231,0.00000308,0.00000050,0.00000136,-0.0000117
 5,-0.00000359,-0.00002242,0.00001140,-0.00000214,0.00008870,0.00005701
 ,0.00000254,-0.00018428,0.00004485,0.00000269,0.00004848,-0.00002638,0
 .00000374,0.00011414,-0.00008096,0.00000547,-0.00011243,-0.00004716,0.
 00001192,0.00002780,0.00000296,-0.00000182,0.00005653,0.00003620,0.000
 00946,-0.00001405,0.00000515,0.00000864,0.00002819,-0.00001377,0.00000
 217,-0.00002597,-0.00001619,0.00000566,0.00000445,-0.00000004,-0.00000
 086,-0.00000043,-0.00000066,-0.00000104,-0.00000095,0.00000119,0.00000
 214,-0.00000038,0.00000181,0.00000361,-0.00000176,-0.00000004,-0.00000
 133,0.00000487,-0.00000090,0.00000073,0.00000544,-0.00000363,0.0000001
 1,-0.00002450,-0.00004644,-0.00000547,0.00001028,0.00011997,-0.0000285
 9,-0.00000665,-0.00000738,-0.00000086,-0.00001540,0.00007826,-0.000044
 52,0.00002368,0.00001278,-0.00001091,0.00000109,-0.00000894,-0.0000079
 9,0.00002218,0.00005921,0.00000588,-0.00000654,-0.00002851,0.00001293,
 -0.00002352,-0.00001363,-0.00000598,0.00000153,-0.00001882,-0.00001029
 ,-0.00000124,-0.00000500,-0.00000034,0.00058027,0.00046390,-0.00016090
 ,0.00162655,-0.00042323,0.00026494,-0.00190474,-0.00141622,0.00023688,
 0.00237978,0.00171976,0.00230239,-0.11883079,-0.06762234,-0.18988620,0
 .00073550,-0.00030575,0.00138854,-0.00023088,0.00053272,0.00069943,-0.
 01796173,-0.01081154,-0.02064477,0.00430720,0.00149992,0.00365133,0.12
 929831,0.07625909,0.20219591\\-0.00000011,-0.00000068,0.00000367,0.000
 00073,0.00000231,0.00000125,-0.00000815,-0.00000153,0.00000755,0.00000
 449,0.00000287,-0.00002641,-0.00000896,-0.00000363,0.00000017,-0.00000
 085,-0.00000034,0.00000234,0.00000471,-0.00000287,0.00000245,0.0000049
 9,0.00000095,0.00000115,-0.00000277,0.00000260,-0.00000538,0.00000582,
 -0.00000515,-0.00000248,-0.00000410,-0.00000159,-0.00000385,-0.0000009
 2,0.00000321,-0.00000282,0.00000388,-0.00000261,-0.00000433,-0.0000002
 1,-0.00000044,0.00000320,0.00000002,-0.00000027,0.00000214,0.00000052,
 0.00000009,0.00000259,-0.00000003,-0.00000169,0.00000311,0.00000066,-0
 .00000002,0.00000297,0.00000018,0.00000095,0.00000259,0.00000218,-0.00
 000047,0.00000172,0.00000111,-0.00000213,0.00001332,-0.00000365,0.0000
 0566,0.00000368,-0.00000207,-0.00000161,-0.00000208,-0.00000187,0.0000
 0125,-0.00000093,-0.00000010,0.00000020,-0.00000220,-0.00000211,-0.000
 00109,-0.00000600,-0.00000049,0.00000733,-0.00000442,0.00000083,-0.000
 00300,-0.00000289,0.00000205,-0.00000002,-0.00000722,-0.00000041,0.000
 00186,-0.00000495,-0.00000085,-0.00000007,-0.00000392,-0.00000380,-0.0
 0000045,-0.00000031,-0.00000126,-0.00001126,0.00000046,0.00000800,0.00
 001426,0.00000295,0.00000365,-0.00000455,0.00000034,-0.00000186,-0.000
 00060,0.00000299,-0.00000225,-0.00000080,0.00000547,0.00000087,0.00000
 075,0.00000586,0.00000100,0.00000032,0.00000202,-0.00000028,0.00000088
 ,0.00000340,0.00000141,0.00000138,0.00000278\\\@


 THERE IS NO SUBJECT, HOWEVER COMPLEX,
 WHICH, IF STUDIED WITH PATIENCE AND INTELLIGIENCE
 WILL NOT BECOME
 MORE COMPLEX
                        QUOTED BY D. GORDON ROHMAN
 Job cpu time:       0 days  7 hours 36 minutes 52.4 seconds.
 File lengths (MBytes):  RWF=   1186 Int=      0 D2E=      0 Chk=     28 Scr=      1
 Normal termination of Gaussian 09 at Tue Feb 19 12:28:16 2019.
WARNING: pbs_rusage is deprecated and values produced may not be accurate


=============================================================================
                                     Resource usage:
                                       CPU time:              20:28:52
   JobId:    5875481.r-man2            Elapsed time:          02:34:27
   Project:             q95            Requested time:        46:00:00
   Service Units:     20.59 
                                       Max physical memory:     1572MB
                                       Max virtual memory:      3202MB
                                       Requested memory:           0MB

                                       Number of cpus:               8

                                       Max jobfs disk use:       1.2GB
                                       Requested jobfs:         20.0GB
=============================================================================

