 Entering Gaussian System, Link 0=/apps/gaussian/g09e01/g09/g09
 AtFile(1): /home/507/hio507/Basis/6-31pGd.gbs
 Initial command:
 /apps/gaussian/g09e01/g09/l1.exe "/jobfs/local/6009738.r-man2/Gau-42120.inp" -scrdir="/jobfs/local/6009738.r-man2/"
 Entering Link 1 = /apps/gaussian/g09e01/g09/l1.exe PID=     42121.
  
 Copyright (c) 1988,1990,1992,1993,1995,1998,2003,2009,2015,
            Gaussian, Inc.  All Rights Reserved.
  
 This is part of the Gaussian(R) 09 program.  It is based on
 the Gaussian(R) 03 system (copyright 2003, Gaussian, Inc.),
 the Gaussian(R) 98 system (copyright 1998, Gaussian, Inc.),
 the Gaussian(R) 94 system (copyright 1995, Gaussian, Inc.),
 the Gaussian 92(TM) system (copyright 1992, Gaussian, Inc.),
 the Gaussian 90(TM) system (copyright 1990, Gaussian, Inc.),
 the Gaussian 88(TM) system (copyright 1988, Gaussian, Inc.),
 the Gaussian 86(TM) system (copyright 1986, Carnegie Mellon
 University), and the Gaussian 82(TM) system (copyright 1983,
 Carnegie Mellon University). Gaussian is a federally registered
 trademark of Gaussian, Inc.
  
 This software contains proprietary and confidential information,
 including trade secrets, belonging to Gaussian, Inc.
  
 This software is provided under written license and may be
 used, copied, transmitted, or stored only in accord with that
 written license.
  
 The following legend is applicable only to US Government
 contracts under FAR:
  
                    RESTRICTED RIGHTS LEGEND
  
 Use, reproduction and disclosure by the US Government is
 subject to restrictions as set forth in subparagraphs (a)
 and (c) of the Commercial Computer Software - Restricted
 Rights clause in FAR 52.227-19.
  
 Gaussian, Inc.
 340 Quinnipiac St., Bldg. 40, Wallingford CT 06492
  
  
 ---------------------------------------------------------------
 Warning -- This program may not be used in any manner that
 competes with the business of Gaussian, Inc. or will provide
 assistance to any competitor of Gaussian, Inc.  The licensee
 of this program is prohibited from giving any competitor of
 Gaussian, Inc. access to this program.  By using this program,
 the user acknowledges that Gaussian, Inc. is engaged in the
 business of creating and licensing software in the field of
 computational chemistry and represents and warrants to the
 licensee that it is not a competitor of Gaussian, Inc. and that
 it will not use this program in any manner prohibited above.
 ---------------------------------------------------------------
  

 Cite this work as:
 Gaussian 09, Revision E.01,
 M. J. Frisch, G. W. Trucks, H. B. Schlegel, G. E. Scuseria, 
 M. A. Robb, J. R. Cheeseman, G. Scalmani, V. Barone, B. Mennucci, 
 G. A. Petersson, H. Nakatsuji, M. Caricato, X. Li, H. P. Hratchian, 
 A. F. Izmaylov, J. Bloino, G. Zheng, J. L. Sonnenberg, M. Hada, 
 M. Ehara, K. Toyota, R. Fukuda, J. Hasegawa, M. Ishida, T. Nakajima, 
 Y. Honda, O. Kitao, H. Nakai, T. Vreven, J. A. Montgomery, Jr., 
 J. E. Peralta, F. Ogliaro, M. Bearpark, J. J. Heyd, E. Brothers, 
 K. N. Kudin, V. N. Staroverov, T. Keith, R. Kobayashi, J. Normand, 
 K. Raghavachari, A. Rendell, J. C. Burant, S. S. Iyengar, J. Tomasi, 
 M. Cossi, N. Rega, J. M. Millam, M. Klene, J. E. Knox, J. B. Cross, 
 V. Bakken, C. Adamo, J. Jaramillo, R. Gomperts, R. E. Stratmann, 
 O. Yazyev, A. J. Austin, R. Cammi, C. Pomelli, J. W. Ochterski, 
 R. L. Martin, K. Morokuma, V. G. Zakrzewski, G. A. Voth, 
 P. Salvador, J. J. Dannenberg, S. Dapprich, A. D. Daniels, 
 O. Farkas, J. B. Foresman, J. V. Ortiz, J. Cioslowski, 
 and D. J. Fox, Gaussian, Inc., Wallingford CT, 2013.
 
 ******************************************
 Gaussian 09:  ES64L-G09RevE.01 30-Nov-2015
                22-Feb-2019 
 ******************************************
 %chk=4SulfCF3.M062X_6-31pGd_opt_Pentadecane.chk
 %mem=196608000
 %nproc=4
 Will use up to    4 processors via shared memory.
 ----------------------------------------------------------------------
 # M062X/Gen 6D SCF=Tight INT(grid=ultrafine) OPT IOP(2/17=4) SCRF=(SMD
 ,Solvent=n-Pentadecane) maxdisk=2147483648
 ----------------------------------------------------------------------
 1/14=-1,18=20,19=15,26=4,38=1/1,3;
 2/9=110,12=2,17=4,18=5,40=1/2;
 3/5=7,8=2,11=2,16=1,25=1,30=1,70=32201,71=1,72=151,74=-55,75=-5/1,2,3;
 4//1;
 5/5=2,32=2,38=5,53=151/2;
 6/7=2,8=2,9=2,10=2,28=1/1;
 7//1,2,3,16;
 1/14=-1,18=20,19=15,26=4/3(2);
 2/9=110,17=4/2;
 99//99;
 2/9=110,17=4/2;
 3/5=7,6=1,8=2,11=2,16=1,25=1,30=1,70=32205,71=1,72=151,74=-55,75=-5,82=7/1,2,3;
 4/5=5,16=3,69=1/1;
 5/5=2,32=2,38=5,53=151/2;
 7//1,2,3,16;
 1/14=-1,18=20,19=15,26=4/3(-5);
 2/9=110,17=4/2;
 6/7=2,8=2,9=2,10=2,19=2,28=1/1;
 99/9=1/99;
 --------------------------------------
 4SulfCF3.M062X_6-31pGd_opt_Pentadecane
 --------------------------------------
 Symbolic Z-matrix:
 Charge =  0 Multiplicity = 1
 C                    -1.723     1.89918   0.26303 
 C                    -0.36913   1.20428   0.15186 
 C                     0.77591   2.22228   0.09215 
 N                     2.0595    1.55388  -0.03436 
 C                     3.22974   2.24836  -0.11536 
 O                     3.20435   3.4683   -0.0718 
 N                     4.40792   1.56634  -0.25894 
 C                     5.73592   2.10876  -0.37511 
 C                     6.0541    3.48504  -0.26367 
 C                     6.79096   1.20683  -0.61906 
 C                     8.10762   1.65133  -0.75667 
 C                     8.40405   3.01045  -0.64479 
 C                     7.37644   3.92326  -0.39753 
 H                    -2.52982   1.13734   0.30443 
 H                    -1.89532   2.55084  -0.62011 
 H                    -1.76708   2.51549   1.18604 
 H                    -0.36043   0.58212  -0.76964 
 H                    -0.22898   0.54054   1.03277 
 H                     0.76965   2.83702   1.01925 
 H                     0.62497   2.88898  -0.78564 
 H                     2.08497   0.52253  -0.07229 
 H                     4.33561   0.53787  -0.30811 
 H                     5.32228   4.24832  -0.0725 
 H                     6.5919    0.14635  -0.71117 
 H                     8.89623   0.93568  -0.95093 
 S                     10.09459   3.58961  -0.83186 
 C                     10.62354   3.1368    0.85376 
 F                     10.7066   1.76217   0.97236 
 F                     11.87245   3.68041   1.08378 
 F                     9.74531   3.64571   1.79297 
 H                     7.60046   4.97925  -0.31062 
 

 GradGradGradGradGradGradGradGradGradGradGradGradGradGradGradGradGradGrad
 Berny optimization.
 Initialization pass.
                           ----------------------------
                           !    Initial Parameters    !
                           ! (Angstroms and Degrees)  !
 --------------------------                            --------------------------
 ! Name  Definition              Value          Derivative Info.                !
 --------------------------------------------------------------------------------
 ! R1    R(1,2)                  1.5258         estimate D2E/DX2                !
 ! R2    R(1,14)                 1.1104         estimate D2E/DX2                !
 ! R3    R(1,15)                 1.111          estimate D2E/DX2                !
 ! R4    R(1,16)                 1.1107         estimate D2E/DX2                !
 ! R5    R(2,3)                  1.5333         estimate D2E/DX2                !
 ! R6    R(2,17)                 1.1119         estimate D2E/DX2                !
 ! R7    R(2,18)                 1.1118         estimate D2E/DX2                !
 ! R8    R(3,4)                  1.4527         estimate D2E/DX2                !
 ! R9    R(3,19)                 1.1124         estimate D2E/DX2                !
 ! R10   R(3,20)                 1.1126         estimate D2E/DX2                !
 ! R11   R(4,5)                  1.3632         estimate D2E/DX2                !
 ! R12   R(4,21)                 1.0324         estimate D2E/DX2                !
 ! R13   R(5,6)                  1.221          estimate D2E/DX2                !
 ! R14   R(5,7)                  1.3689         estimate D2E/DX2                !
 ! R15   R(7,8)                  1.4392         estimate D2E/DX2                !
 ! R16   R(7,22)                 1.0322         estimate D2E/DX2                !
 ! R17   R(8,9)                  1.417          estimate D2E/DX2                !
 ! R18   R(8,10)                 1.4093         estimate D2E/DX2                !
 ! R19   R(9,13)                 1.3995         estimate D2E/DX2                !
 ! R20   R(9,23)                 1.0746         estimate D2E/DX2                !
 ! R21   R(10,11)                1.3965         estimate D2E/DX2                !
 ! R22   R(10,24)                1.0829         estimate D2E/DX2                !
 ! R23   R(11,12)                1.3956         estimate D2E/DX2                !
 ! R24   R(11,25)                1.0825         estimate D2E/DX2                !
 ! R25   R(12,13)                1.3965         estimate D2E/DX2                !
 ! R26   R(12,26)                1.7968         estimate D2E/DX2                !
 ! R27   R(13,31)                1.083          estimate D2E/DX2                !
 ! R28   R(26,27)                1.8238         estimate D2E/DX2                !
 ! R29   R(27,28)                1.3822         estimate D2E/DX2                !
 ! R30   R(27,29)                1.3814         estimate D2E/DX2                !
 ! R31   R(27,30)                1.3829         estimate D2E/DX2                !
 ! A1    A(2,1,14)             109.5696         estimate D2E/DX2                !
 ! A2    A(2,1,15)             110.2941         estimate D2E/DX2                !
 ! A3    A(2,1,16)             110.3928         estimate D2E/DX2                !
 ! A4    A(14,1,15)            108.6244         estimate D2E/DX2                !
 ! A5    A(14,1,16)            108.7151         estimate D2E/DX2                !
 ! A6    A(15,1,16)            109.205          estimate D2E/DX2                !
 ! A7    A(1,2,3)              111.2897         estimate D2E/DX2                !
 ! A8    A(1,2,17)             108.7932         estimate D2E/DX2                !
 ! A9    A(1,2,18)             109.0257         estimate D2E/DX2                !
 ! A10   A(3,2,17)             109.4742         estimate D2E/DX2                !
 ! A11   A(3,2,18)             109.4551         estimate D2E/DX2                !
 ! A12   A(17,2,18)            108.76           estimate D2E/DX2                !
 ! A13   A(2,3,4)              110.9626         estimate D2E/DX2                !
 ! A14   A(2,3,19)             109.2835         estimate D2E/DX2                !
 ! A15   A(2,3,20)             109.103          estimate D2E/DX2                !
 ! A16   A(4,3,19)             109.3789         estimate D2E/DX2                !
 ! A17   A(4,3,20)             109.0798         estimate D2E/DX2                !
 ! A18   A(19,3,20)            109.0037         estimate D2E/DX2                !
 ! A19   A(3,4,5)              121.9572         estimate D2E/DX2                !
 ! A20   A(3,4,21)             118.9898         estimate D2E/DX2                !
 ! A21   A(5,4,21)             119.0508         estimate D2E/DX2                !
 ! A22   A(4,5,6)              119.2776         estimate D2E/DX2                !
 ! A23   A(4,5,7)              119.4235         estimate D2E/DX2                !
 ! A24   A(6,5,7)              121.2948         estimate D2E/DX2                !
 ! A25   A(5,7,8)              127.9424         estimate D2E/DX2                !
 ! A26   A(5,7,22)             116.1764         estimate D2E/DX2                !
 ! A27   A(8,7,22)             115.8701         estimate D2E/DX2                !
 ! A28   A(7,8,9)              124.5356         estimate D2E/DX2                !
 ! A29   A(7,8,10)             117.6168         estimate D2E/DX2                !
 ! A30   A(9,8,10)             117.8475         estimate D2E/DX2                !
 ! A31   A(8,9,13)             120.5832         estimate D2E/DX2                !
 ! A32   A(8,9,23)             123.4342         estimate D2E/DX2                !
 ! A33   A(13,9,23)            115.9822         estimate D2E/DX2                !
 ! A34   A(8,10,11)            121.2784         estimate D2E/DX2                !
 ! A35   A(8,10,24)            120.2541         estimate D2E/DX2                !
 ! A36   A(11,10,24)           118.466          estimate D2E/DX2                !
 ! A37   A(10,11,12)           120.1564         estimate D2E/DX2                !
 ! A38   A(10,11,25)           119.6123         estimate D2E/DX2                !
 ! A39   A(12,11,25)           120.2313         estimate D2E/DX2                !
 ! A40   A(11,12,13)           119.6335         estimate D2E/DX2                !
 ! A41   A(11,12,26)           120.3595         estimate D2E/DX2                !
 ! A42   A(13,12,26)           120.0047         estimate D2E/DX2                !
 ! A43   A(9,13,12)            120.4995         estimate D2E/DX2                !
 ! A44   A(9,13,31)            119.5447         estimate D2E/DX2                !
 ! A45   A(12,13,31)           119.9556         estimate D2E/DX2                !
 ! A46   A(12,26,27)            95.5449         estimate D2E/DX2                !
 ! A47   A(26,27,28)           110.0993         estimate D2E/DX2                !
 ! A48   A(26,27,29)           108.5671         estimate D2E/DX2                !
 ! A49   A(26,27,30)           110.6194         estimate D2E/DX2                !
 ! A50   A(28,27,29)           108.8291         estimate D2E/DX2                !
 ! A51   A(28,27,30)           110.2347         estimate D2E/DX2                !
 ! A52   A(29,27,30)           108.4367         estimate D2E/DX2                !
 ! D1    D(14,1,2,3)          -179.9848         estimate D2E/DX2                !
 ! D2    D(14,1,2,17)           59.3145         estimate D2E/DX2                !
 ! D3    D(14,1,2,18)          -59.155          estimate D2E/DX2                !
 ! D4    D(15,1,2,3)            60.4885         estimate D2E/DX2                !
 ! D5    D(15,1,2,17)          -60.2123         estimate D2E/DX2                !
 ! D6    D(15,1,2,18)         -178.6817         estimate D2E/DX2                !
 ! D7    D(16,1,2,3)           -60.2849         estimate D2E/DX2                !
 ! D8    D(16,1,2,17)          179.0144         estimate D2E/DX2                !
 ! D9    D(16,1,2,18)           60.5449         estimate D2E/DX2                !
 ! D10   D(1,2,3,4)           -179.1194         estimate D2E/DX2                !
 ! D11   D(1,2,3,19)            60.1839         estimate D2E/DX2                !
 ! D12   D(1,2,3,20)           -58.9114         estimate D2E/DX2                !
 ! D13   D(17,2,3,4)           -58.8198         estimate D2E/DX2                !
 ! D14   D(17,2,3,19)         -179.5164         estimate D2E/DX2                !
 ! D15   D(17,2,3,20)           61.3882         estimate D2E/DX2                !
 ! D16   D(18,2,3,4)            60.3031         estimate D2E/DX2                !
 ! D17   D(18,2,3,19)          -60.3935         estimate D2E/DX2                !
 ! D18   D(18,2,3,20)         -179.4889         estimate D2E/DX2                !
 ! D19   D(2,3,4,5)            179.5762         estimate D2E/DX2                !
 ! D20   D(2,3,4,21)             0.1202         estimate D2E/DX2                !
 ! D21   D(19,3,4,5)           -59.7836         estimate D2E/DX2                !
 ! D22   D(19,3,4,21)          120.7604         estimate D2E/DX2                !
 ! D23   D(20,3,4,5)            59.3544         estimate D2E/DX2                !
 ! D24   D(20,3,4,21)         -120.1016         estimate D2E/DX2                !
 ! D25   D(3,4,5,6)              0.4972         estimate D2E/DX2                !
 ! D26   D(3,4,5,7)           -178.7719         estimate D2E/DX2                !
 ! D27   D(21,4,5,6)           179.9528         estimate D2E/DX2                !
 ! D28   D(21,4,5,7)             0.6838         estimate D2E/DX2                !
 ! D29   D(4,5,7,8)            179.3365         estimate D2E/DX2                !
 ! D30   D(4,5,7,22)             0.6098         estimate D2E/DX2                !
 ! D31   D(6,5,7,8)              0.0826         estimate D2E/DX2                !
 ! D32   D(6,5,7,22)          -178.6441         estimate D2E/DX2                !
 ! D33   D(5,7,8,9)              4.6838         estimate D2E/DX2                !
 ! D34   D(5,7,8,10)          -175.1935         estimate D2E/DX2                !
 ! D35   D(22,7,8,9)          -176.5862         estimate D2E/DX2                !
 ! D36   D(22,7,8,10)            3.5365         estimate D2E/DX2                !
 ! D37   D(7,8,9,13)          -179.6814         estimate D2E/DX2                !
 ! D38   D(7,8,9,23)             0.5322         estimate D2E/DX2                !
 ! D39   D(10,8,9,13)            0.1956         estimate D2E/DX2                !
 ! D40   D(10,8,9,23)         -179.5907         estimate D2E/DX2                !
 ! D41   D(7,8,10,11)          179.4412         estimate D2E/DX2                !
 ! D42   D(7,8,10,24)           -0.1141         estimate D2E/DX2                !
 ! D43   D(9,8,10,11)           -0.4445         estimate D2E/DX2                !
 ! D44   D(9,8,10,24)         -179.9998         estimate D2E/DX2                !
 ! D45   D(8,9,13,12)            0.0732         estimate D2E/DX2                !
 ! D46   D(8,9,13,31)          179.9171         estimate D2E/DX2                !
 ! D47   D(23,9,13,12)         179.8749         estimate D2E/DX2                !
 ! D48   D(23,9,13,31)          -0.2812         estimate D2E/DX2                !
 ! D49   D(8,10,11,12)           0.4245         estimate D2E/DX2                !
 ! D50   D(8,10,11,25)        -179.5499         estimate D2E/DX2                !
 ! D51   D(24,10,11,12)        179.9876         estimate D2E/DX2                !
 ! D52   D(24,10,11,25)          0.0132         estimate D2E/DX2                !
 ! D53   D(10,11,12,13)         -0.143          estimate D2E/DX2                !
 ! D54   D(10,11,12,26)       -179.5877         estimate D2E/DX2                !
 ! D55   D(25,11,12,13)        179.8313         estimate D2E/DX2                !
 ! D56   D(25,11,12,26)          0.3866         estimate D2E/DX2                !
 ! D57   D(11,12,13,9)          -0.1026         estimate D2E/DX2                !
 ! D58   D(11,12,13,31)       -179.9459         estimate D2E/DX2                !
 ! D59   D(26,12,13,9)         179.3441         estimate D2E/DX2                !
 ! D60   D(26,12,13,31)         -0.4992         estimate D2E/DX2                !
 ! D61   D(11,12,26,27)        -79.6068         estimate D2E/DX2                !
 ! D62   D(13,12,26,27)        100.9505         estimate D2E/DX2                !
 ! D63   D(12,26,27,28)         70.8799         estimate D2E/DX2                !
 ! D64   D(12,26,27,29)       -170.0773         estimate D2E/DX2                !
 ! D65   D(12,26,27,30)        -51.2061         estimate D2E/DX2                !
 --------------------------------------------------------------------------------
 Trust Radius=3.00D-01 FncErr=1.00D-07 GrdErr=1.00D-06
 Number of steps in this run=    158 maximum allowed number of steps=    186.
 GradGradGradGradGradGradGradGradGradGradGradGradGradGradGradGradGradGrad

                          Input orientation:                          
 ---------------------------------------------------------------------
 Center     Atomic      Atomic             Coordinates (Angstroms)
 Number     Number       Type             X           Y           Z
 ---------------------------------------------------------------------
      1          6           0       -1.723000    1.899180    0.263030
      2          6           0       -0.369130    1.204280    0.151860
      3          6           0        0.775910    2.222280    0.092150
      4          7           0        2.059500    1.553880   -0.034360
      5          6           0        3.229740    2.248360   -0.115360
      6          8           0        3.204350    3.468300   -0.071800
      7          7           0        4.407920    1.566340   -0.258940
      8          6           0        5.735920    2.108760   -0.375110
      9          6           0        6.054100    3.485040   -0.263670
     10          6           0        6.790960    1.206830   -0.619060
     11          6           0        8.107620    1.651330   -0.756670
     12          6           0        8.404050    3.010450   -0.644790
     13          6           0        7.376440    3.923260   -0.397530
     14          1           0       -2.529820    1.137340    0.304430
     15          1           0       -1.895320    2.550840   -0.620110
     16          1           0       -1.767080    2.515490    1.186040
     17          1           0       -0.360430    0.582120   -0.769640
     18          1           0       -0.228980    0.540540    1.032770
     19          1           0        0.769650    2.837020    1.019250
     20          1           0        0.624970    2.888980   -0.785640
     21          1           0        2.084970    0.522530   -0.072290
     22          1           0        4.335610    0.537870   -0.308110
     23          1           0        5.322280    4.248320   -0.072500
     24          1           0        6.591900    0.146350   -0.711170
     25          1           0        8.896230    0.935680   -0.950930
     26         16           0       10.094590    3.589610   -0.831860
     27          6           0       10.623540    3.136800    0.853760
     28          9           0       10.706600    1.762170    0.972360
     29          9           0       11.872450    3.680410    1.083780
     30          9           0        9.745310    3.645710    1.792970
     31          1           0        7.600460    4.979250   -0.310620
 ---------------------------------------------------------------------
                    Distance matrix (angstroms):
                    1          2          3          4          5
     1  C    0.000000
     2  C    1.525847   0.000000
     3  C    2.525499   1.533299   0.000000
     4  N    3.809853   2.460720   1.452710   0.000000
     5  C    4.979432   3.756777   2.462727   1.363204   0.000000
     6  O    5.181991   4.236221   2.734368   2.230939   1.220981
     7  N    6.162095   4.808331   3.707427   2.359167   1.368895
     8  C    7.489101   6.194144   4.983264   3.733640   2.523469
     9  C    7.954599   6.828793   5.438792   4.442836   3.086808
    10  C    8.587488   7.201473   6.141481   4.780066   3.744434
    11  C    9.886471   8.537012   7.402733   6.091879   4.955950
    12  C   10.228206   8.992530   7.704078   6.538160   5.256858
    13  C    9.345215   8.227304   6.833748   5.832298   4.481075
    14  H    1.110438   2.167104   3.485686   4.620621   5.880741
    15  H    1.110987   2.176791   2.784014   4.120392   5.158731
    16  H    1.110733   2.177858   2.783768   4.129986   5.170417
    17  H    2.158159   1.111900   2.173494   2.709431   4.011703
    18  H    2.161134   1.111843   2.173205   2.720802   4.024624
    19  H    2.768522   2.171411   1.112411   2.102440   2.772346
    20  H    2.755427   2.169183   1.112559   2.098759   2.764868
    21  H    4.063033   2.556880   2.151704   1.032361   2.071435
    22  H    6.235874   4.773914   3.958397   2.507567   2.045942
    23  H    7.434178   6.458225   4.980103   4.231689   2.894892
    24  H    8.553306   7.093657   6.227403   4.793940   4.009683
    25  H   10.731732   9.334623   8.287518   6.925543   5.876259
    26  S   11.987984  10.777149   9.463677   8.327237   7.031251
    27  C   12.422468  11.183295   9.919285   8.754266   7.509780
    28  F   12.450577  11.120083   9.980234   8.707997   7.571192
    29  F   13.736181  12.524216  11.235776  10.102789   8.842236
    30  F   11.700992  10.533552   9.239539   8.172305   6.931592
    31  H    9.835792   8.830552   7.371404   6.520101   5.157430
                    6          7          8          9         10
     6  O    0.000000
     7  N    2.258551   0.000000
     8  C    2.889497   1.439201   0.000000
     9  C    2.856251   2.528110   1.416970   0.000000
    10  C    4.275221   2.436763   1.409290   2.420642   0.000000
    11  C    5.273754   3.733998   2.445361   2.796871   1.396464
    12  C    5.251174   4.266543   2.829256   2.427499   2.419869
    13  C    4.209445   3.792940   2.446266   1.399478   2.787625
    14  H    6.201260   6.973784   8.350323   8.917293   9.366675
    15  H    5.210471   6.389876   7.647959   8.012057   8.789643
    16  H    5.215853   6.412447   7.674479   8.013273   8.843700
    17  H    4.639469   4.895576   6.296965   7.058976   7.180203
    18  H    4.645386   4.921547   6.326253   7.058890   7.242378
    19  H    2.741654   4.060222   5.209457   5.476425   6.449632
    20  H    2.738317   4.041967   5.186433   5.486638   6.393497
    21  H    3.151281   2.553522   3.992150   4.956519   4.786812
    22  H    3.150081   1.032181   2.105482   3.411890   2.563775
    23  H    2.257002   2.839689   2.200088   1.074571   3.421463
    24  H    4.787446   2.643984   2.167185   3.411207   1.082925
    25  H    6.291624   4.584922   3.419831   3.879338   2.148446
    26  S    6.933096   6.063009   4.625964   4.081585   4.078835
    27  C    7.484045   6.506795   5.143522   4.716959   4.536811
    28  F    7.764335   6.420889   5.161730   5.112906   4.263010
    29  F    8.747360   7.873462   6.500419   5.975532   5.902525
    30  F    6.803896   6.084558   4.810197   4.228548   4.527053
    31  H    4.654652   4.673643   3.423504   2.150836   3.870604
                   11         12         13         14         15
    11  C    0.000000
    12  C    1.395563   0.000000
    13  C    2.413560   1.396546   0.000000
    14  H   10.702581  11.133691  10.314460   0.000000
    15  H   10.044231  10.309650   9.375426   1.804258   0.000000
    16  H   10.101019  10.346439   9.385812   1.805078   1.811042
    17  H    8.535294   9.095520   8.435688   2.483576   2.500821
    18  H    8.598538   9.134762   8.445766   2.486064   3.090309
    19  H    7.642353   7.815572   6.843746   3.779733   3.141889
    20  H    7.584370   7.781303   6.841251   3.769509   2.548254
    21  H    6.165621   6.815297   6.298444   4.670781   4.500762
    22  H    3.958416   4.772757   4.551429   6.918721   6.555447
    23  H    3.869181   3.370036   2.104966   8.454333   7.434720
    24  H    2.136456   3.389891   3.870261   9.231429   8.821721
    25  H    1.082496   2.154213   3.397300  11.496574  10.916764
    26  S    2.776803   1.796760   2.772779  12.910481  12.036687
    27  C    3.336159   2.680998   3.567619  13.315798  12.618934
    28  F    3.123544   3.078167   4.199628  13.267982  12.726600
    29  F    4.656003   3.932760   4.739975  14.645818  13.918716
    30  F    3.627705   2.853981   3.238344  12.616913  11.938424
    31  H    3.395766   2.152580   1.082983  10.851780   9.806263
                   16         17         18         19         20
    16  H    0.000000
    17  H    3.088894   0.000000
    18  H    2.507922   1.807675   0.000000
    19  H    2.562460   3.092213   2.504249   0.000000
    20  H    3.122326   2.508560   3.090472   1.811425   0.000000
    21  H    4.515924   2.543586   2.564341   2.877219   2.870636
    22  H    6.586827   4.718873   4.757462   4.445677   4.418665
    23  H    7.405785   6.798545   6.766516   4.889798   4.941770
    24  H    8.892962   6.966219   7.051320   6.643241   6.567482
    25  H   10.989478   9.265183   9.346692   8.575430   8.500379
    26  S   12.079937  10.879169  10.924732   9.536640   9.495616
    27  C   12.410637  11.393393  11.160188   9.859838  10.135110
    28  F   12.498234  11.265267  11.003769   9.995023  10.295607
    29  F   13.689568  12.754525  12.502240  11.134974  11.429213
    30  F   11.583647  10.866395  10.474084   9.045170   9.508021
    31  H    9.801067   9.106109   9.099834   7.281323   7.297420
                   21         22         23         24         25
    21  H    0.000000
    22  H    2.263013   0.000000
    23  H    4.935756   3.846618   0.000000
    24  H    4.567504   2.325207   4.341197   0.000000
    25  H    6.880114   4.622848   4.951600   2.447542   0.000000
    26  S    8.610339   6.538599   4.877035   4.913191   2.914376
    27  C    8.977703   6.902351   5.495161   5.257939   3.329480
    28  F    8.772714   6.612717   6.021925   4.730317   2.767593
    29  F   10.349081   8.283530   6.675645   6.602699   4.531167
    30  F    8.480227   6.583165   4.838007   5.334813   3.948948
    31  H    7.095054   5.512269   2.404384   4.953237   4.294121
                   26         27         28         29         30
    26  S    0.000000
    27  C    1.823771   0.000000
    28  F    2.639944   1.382235   0.000000
    29  F    2.615092   1.381375   2.247502   0.000000
    30  F    2.648561   1.382893   2.268304   2.242516   0.000000
    31  H    2.902322   3.726851   4.652284   4.677738   3.286914
                   31
    31  H    0.000000
 Stoichiometry    C11H13F3N2OS
 Framework group  C1[X(C11H13F3N2OS)]
 Deg. of freedom    87
 Full point group                 C1      NOp   1
 Largest Abelian subgroup         C1      NOp   1
 Largest concise Abelian subgroup C1      NOp   1
                         Standard orientation:                         
 ---------------------------------------------------------------------
 Center     Atomic      Atomic             Coordinates (Angstroms)
 Number     Number       Type             X           Y           Z
 ---------------------------------------------------------------------
      1          6           0        7.863489   -0.419381    0.405538
      2          6           0        6.614491    0.457065    0.398246
      3          6           0        5.350574   -0.376894    0.157346
      4          7           0        4.168322    0.466884    0.131220
      5          6           0        2.921712   -0.044006   -0.076818
      6          8           0        2.788613   -1.247007   -0.237651
      7          7           0        1.846239    0.801965   -0.116411
      8          6           0        0.463944    0.466343   -0.335311
      9          6           0       -0.031979   -0.855243   -0.458904
     10          6           0       -0.457972    1.527508   -0.435808
     11          6           0       -1.815746    1.289630   -0.659352
     12          6           0       -2.287919   -0.018129   -0.779417
     13          6           0       -1.394697   -1.086849   -0.677759
     14          1           0        8.759820    0.211889    0.582067
     15          1           0        7.978889   -0.933908   -0.572335
     16          1           0        7.798258   -1.179438    1.212871
     17          1           0        6.715493    1.217917   -0.406257
     18          1           0        6.532602    0.979517    1.376271
     19          1           0        5.247927   -1.131092    0.968584
     20          1           0        5.442677   -0.904178   -0.817988
     21          1           0        4.276910    1.484625    0.266060
     22          1           0        2.051736    1.805818    0.007872
     23          1           0        0.589093   -1.729488   -0.390574
     24          1           0       -0.121346    2.552964   -0.347202
     25          1           0       -2.499132    2.125329   -0.739278
     26         16           0       -4.032000   -0.330097   -1.078087
     27          6           0       -4.552252   -0.094790    0.653995
     28          9           0       -4.461637    1.240373    0.999974
     29          9           0       -5.867438   -0.498958    0.777003
     30          9           0       -3.777403   -0.862755    1.503837
     31          1           0       -1.755317   -2.103762   -0.770998
 ---------------------------------------------------------------------
 Rotational constants (GHZ):      1.4357548      0.1041993      0.1032002
 General basis read from cards:  (6D, 7F)
 There are   372 symmetry adapted cartesian basis functions of A   symmetry.
 There are   372 symmetry adapted basis functions of A   symmetry.
   372 basis functions,   652 primitive gaussians,   372 cartesian basis functions
    72 alpha electrons       72 beta electrons
       nuclear repulsion energy      1398.3341179544 Hartrees.
 NAtoms=   31 NActive=   31 NUniq=   31 SFac= 1.00D+00 NAtFMM=   60 NAOKFM=F Big=F
 Integral buffers will be    131072 words long.
 Raffenetti 2 integral format.
 Two-electron integral symmetry is turned on.
 ------------------------------------------------------------------------------
 Polarizable Continuum Model (PCM)
 =================================
 Model                : PCM (using non-symmetric T matrix).
 Atomic radii         : SMD-Coulomb.
 Polarization charges : Total charges.
 Charge compensation  : None.
 Solution method      : On-the-fly selection.
 Cavity type          : VdW (van der Waals Surface) (Alpha=1.000).
 Cavity algorithm     : GePol (No added spheres)
                        Default sphere list used, NSphG=   31.
                        Lebedev-Laikov grids with approx.  5.0 points / Ang**2.
                        Smoothing algorithm: York/Karplus (Gamma=1.0000).
                        Polarization charges: spherical gaussians, with
                                              point-specific exponents (IZeta= 3).
                        Self-potential: point-specific (ISelfS= 7).
                        Self-field    : sphere-specific E.n sum rule (ISelfD= 2).
 1st derivatives      : Analytical E(r).r(x)/FMM algorithm (CHGder, D1EAlg=3).
                        Cavity 1st derivative terms included.
 Solvent              : n-Pentadecane, Eps=   2.033300 Eps(inf)=   2.049192
 ------------------------------------------------------------------------------
 ------------------------------------------------------------------------------
 Atomic radii for non-electrostatic terms: SMD-CDS.
 ------------------------------------------------------------------------------
 Nuclear repulsion after PCM non-electrostatic terms =     1398.3266977695 Hartrees.
 One-electron integrals computed using PRISM.
 NBasis=   372 RedAO= T EigKep=  1.65D-06  NBF=   372
 NBsUse=   372 1.00D-06 EigRej= -1.00D+00 NBFU=   372
 ExpMin= 4.05D-02 ExpMax= 2.19D+04 ExpMxC= 3.30D+03 IAcc=3 IRadAn=         5 AccDes= 0.00D+00
 Harris functional with IExCor= 1009 and IRadAn=       5 diagonalized for initial guess.
 HarFok:  IExCor= 1009 AccDes= 0.00D+00 IRadAn=         5 IDoV= 1 UseB2=F ITyADJ=14
 ICtDFT=  3500011 ScaDFX=  1.000000  1.000000  1.000000  1.000000
 FoFCou: FMM=F IPFlag=           0 FMFlag=      100000 FMFlg1=           0
         NFxFlg=           0 DoJE=T BraDBF=F KetDBF=T FulRan=T
         wScrn=  0.000000 ICntrl=     500 IOpCl=  0 I1Cent=   200000004 NGrid=           0
         NMat0=    1 NMatS0=      1 NMatT0=    0 NMatD0=    1 NMtDS0=    0 NMtDT0=    0
 Petite list used in FoFCou.
 Requested convergence on RMS density matrix=1.00D-08 within 128 cycles.
 Requested convergence on MAX density matrix=1.00D-06.
 Requested convergence on             energy=1.00D-06.
 No special actions if energy rises.
 Inv3:  Mode=1 IEnd=    18705027.
 Iteration    1 A*A^-1 deviation from unit magnitude is 4.11D-15 for   1243.
 Iteration    1 A*A^-1 deviation from orthogonality  is 2.59D-15 for   1776    958.
 Iteration    1 A^-1*A deviation from unit magnitude is 4.66D-15 for   1235.
 Iteration    1 A^-1*A deviation from orthogonality  is 1.56D-15 for   2470    450.
 Error on total polarization charges =  0.02224
 SCF Done:  E(RM062X) =  -1309.11385759     A.U. after   15 cycles
            NFock= 15  Conv=0.41D-08     -V/T= 2.0071
 SMD-CDS (non-electrostatic) energy       (kcal/mol) =      -4.66
 (included in total energy above)

 **********************************************************************

            Population analysis using the SCF density.

 **********************************************************************

 Orbital symmetries:
       Occupied  (A) (A) (A) (A) (A) (A) (A) (A) (A) (A) (A) (A)
                 (A) (A) (A) (A) (A) (A) (A) (A) (A) (A) (A) (A)
                 (A) (A) (A) (A) (A) (A) (A) (A) (A) (A) (A) (A)
                 (A) (A) (A) (A) (A) (A) (A) (A) (A) (A) (A) (A)
                 (A) (A) (A) (A) (A) (A) (A) (A) (A) (A) (A) (A)
                 (A) (A) (A) (A) (A) (A) (A) (A) (A) (A) (A) (A)
       Virtual   (A) (A) (A) (A) (A) (A) (A) (A) (A) (A) (A) (A)
                 (A) (A) (A) (A) (A) (A) (A) (A) (A) (A) (A) (A)
                 (A) (A) (A) (A) (A) (A) (A) (A) (A) (A) (A) (A)
                 (A) (A) (A) (A) (A) (A) (A) (A) (A) (A) (A) (A)
                 (A) (A) (A) (A) (A) (A) (A) (A) (A) (A) (A) (A)
                 (A) (A) (A) (A) (A) (A) (A) (A) (A) (A) (A) (A)
                 (A) (A) (A) (A) (A) (A) (A) (A) (A) (A) (A) (A)
                 (A) (A) (A) (A) (A) (A) (A) (A) (A) (A) (A) (A)
                 (A) (A) (A) (A) (A) (A) (A) (A) (A) (A) (A) (A)
                 (A) (A) (A) (A) (A) (A) (A) (A) (A) (A) (A) (A)
                 (A) (A) (A) (A) (A) (A) (A) (A) (A) (A) (A) (A)
                 (A) (A) (A) (A) (A) (A) (A) (A) (A) (A) (A) (A)
                 (A) (A) (A) (A) (A) (A) (A) (A) (A) (A) (A) (A)
                 (A) (A) (A) (A) (A) (A) (A) (A) (A) (A) (A) (A)
                 (A) (A) (A) (A) (A) (A) (A) (A) (A) (A) (A) (A)
                 (A) (A) (A) (A) (A) (A) (A) (A) (A) (A) (A) (A)
                 (A) (A) (A) (A) (A) (A) (A) (A) (A) (A) (A) (A)
                 (A) (A) (A) (A) (A) (A) (A) (A) (A) (A) (A) (A)
                 (A) (A) (A) (A) (A) (A) (A) (A) (A) (A) (A) (A)
                 (A) (A) (A) (A) (A) (A) (A) (A) (A) (A) (A) (A)
                 (A) (A) (A) (A) (A) (A) (A) (A) (A) (A) (A) (A)
                 (A) (A) (A) (A) (A) (A) (A) (A) (A) (A) (A) (A)
                 (A) (A) (A) (A) (A) (A) (A) (A) (A) (A) (A) (A)
                 (A) (A) (A) (A) (A) (A) (A) (A) (A) (A) (A) (A)
                 (A) (A) (A) (A) (A) (A) (A) (A) (A) (A) (A) (A)
 The electronic state is 1-A.
 Alpha  occ. eigenvalues --  -89.95794 -25.31481 -25.31366 -25.31227 -19.60495
 Alpha  occ. eigenvalues --  -14.81364 -14.79144 -10.84190 -10.68515 -10.62745
 Alpha  occ. eigenvalues --  -10.59558 -10.58727 -10.57515 -10.57172 -10.57162
 Alpha  occ. eigenvalues --  -10.56226 -10.55777 -10.54541  -8.30215  -6.22297
 Alpha  occ. eigenvalues --   -6.22046  -6.21578  -1.45160  -1.37547  -1.37398
 Alpha  occ. eigenvalues --   -1.18091  -1.05436  -1.02956  -0.97571  -0.91142
 Alpha  occ. eigenvalues --   -0.88496  -0.85926  -0.84371  -0.78897  -0.76884
 Alpha  occ. eigenvalues --   -0.72092  -0.70472  -0.68847  -0.68700  -0.68403
 Alpha  occ. eigenvalues --   -0.66840  -0.63919  -0.63596  -0.61371  -0.57417
 Alpha  occ. eigenvalues --   -0.57295  -0.56146  -0.55358  -0.54295  -0.54224
 Alpha  occ. eigenvalues --   -0.53532  -0.53120  -0.52407  -0.52250  -0.50861
 Alpha  occ. eigenvalues --   -0.50507  -0.49002  -0.47539  -0.46800  -0.45970
 Alpha  occ. eigenvalues --   -0.44000  -0.42715  -0.42385  -0.41576  -0.40399
 Alpha  occ. eigenvalues --   -0.40297  -0.37757  -0.34239  -0.32854  -0.32218
 Alpha  occ. eigenvalues --   -0.31847  -0.28260
 Alpha virt. eigenvalues --   -0.00668   0.00118   0.00666   0.01697   0.02799
 Alpha virt. eigenvalues --    0.02926   0.03509   0.03769   0.04132   0.04540
 Alpha virt. eigenvalues --    0.04979   0.05169   0.06018   0.06637   0.06799
 Alpha virt. eigenvalues --    0.07018   0.07642   0.07786   0.08616   0.08729
 Alpha virt. eigenvalues --    0.08984   0.09140   0.09997   0.10454   0.10593
 Alpha virt. eigenvalues --    0.11671   0.11840   0.11997   0.12111   0.13091
 Alpha virt. eigenvalues --    0.13852   0.14395   0.15052   0.15220   0.15591
 Alpha virt. eigenvalues --    0.15866   0.16299   0.16581   0.17200   0.17716
 Alpha virt. eigenvalues --    0.17792   0.18777   0.19159   0.19291   0.20082
 Alpha virt. eigenvalues --    0.20265   0.20686   0.20759   0.21455   0.21659
 Alpha virt. eigenvalues --    0.22217   0.22608   0.23062   0.23420   0.23861
 Alpha virt. eigenvalues --    0.24516   0.24629   0.25051   0.25317   0.25523
 Alpha virt. eigenvalues --    0.26199   0.26575   0.27151   0.27865   0.28136
 Alpha virt. eigenvalues --    0.28311   0.28900   0.29728   0.29979   0.30292
 Alpha virt. eigenvalues --    0.30515   0.31473   0.31912   0.32258   0.32475
 Alpha virt. eigenvalues --    0.32956   0.33019   0.33873   0.34183   0.34700
 Alpha virt. eigenvalues --    0.34871   0.35576   0.35851   0.37140   0.37518
 Alpha virt. eigenvalues --    0.38199   0.38585   0.38970   0.39449   0.39769
 Alpha virt. eigenvalues --    0.39960   0.40884   0.41362   0.42694   0.43764
 Alpha virt. eigenvalues --    0.45013   0.45611   0.45939   0.47212   0.48389
 Alpha virt. eigenvalues --    0.50001   0.50650   0.52179   0.53727   0.54427
 Alpha virt. eigenvalues --    0.57955   0.58244   0.59976   0.64962   0.65963
 Alpha virt. eigenvalues --    0.68019   0.68573   0.69154   0.70458   0.72070
 Alpha virt. eigenvalues --    0.72473   0.73945   0.74536   0.74975   0.75493
 Alpha virt. eigenvalues --    0.75947   0.77167   0.77871   0.78866   0.80123
 Alpha virt. eigenvalues --    0.82006   0.82807   0.84206   0.84829   0.85786
 Alpha virt. eigenvalues --    0.87683   0.88293   0.88517   0.88794   0.90559
 Alpha virt. eigenvalues --    0.92881   0.93259   0.95384   0.97506   0.97821
 Alpha virt. eigenvalues --    0.98910   0.99681   1.00033   1.00236   1.01697
 Alpha virt. eigenvalues --    1.02815   1.03479   1.04091   1.04115   1.05052
 Alpha virt. eigenvalues --    1.05544   1.06854   1.10455   1.10570   1.11372
 Alpha virt. eigenvalues --    1.12469   1.13832   1.13880   1.14513   1.15613
 Alpha virt. eigenvalues --    1.16788   1.17899   1.21009   1.21946   1.24137
 Alpha virt. eigenvalues --    1.27311   1.29453   1.30525   1.30925   1.31508
 Alpha virt. eigenvalues --    1.32418   1.35373   1.35732   1.37109   1.38749
 Alpha virt. eigenvalues --    1.39594   1.40653   1.42181   1.43959   1.44793
 Alpha virt. eigenvalues --    1.45879   1.47181   1.48083   1.49059   1.51135
 Alpha virt. eigenvalues --    1.53853   1.54587   1.55503   1.56567   1.57756
 Alpha virt. eigenvalues --    1.59548   1.59884   1.61765   1.65740   1.68125
 Alpha virt. eigenvalues --    1.69223   1.69600   1.71504   1.73209   1.73973
 Alpha virt. eigenvalues --    1.75711   1.75809   1.78815   1.80085   1.83895
 Alpha virt. eigenvalues --    1.84063   1.85222   1.87105   1.87331   1.88601
 Alpha virt. eigenvalues --    1.88779   1.89373   1.90119   1.90339   1.90810
 Alpha virt. eigenvalues --    1.92042   1.92885   1.93328   1.95773   1.96946
 Alpha virt. eigenvalues --    1.99057   2.00023   2.01489   2.02365   2.02518
 Alpha virt. eigenvalues --    2.03771   2.04311   2.04683   2.05602   2.06382
 Alpha virt. eigenvalues --    2.06893   2.10627   2.11529   2.14161   2.15169
 Alpha virt. eigenvalues --    2.16957   2.17649   2.18884   2.19876   2.20301
 Alpha virt. eigenvalues --    2.22256   2.24728   2.25227   2.27247   2.28728
 Alpha virt. eigenvalues --    2.30342   2.30742   2.32797   2.34992   2.35649
 Alpha virt. eigenvalues --    2.38115   2.38768   2.40015   2.41233   2.42337
 Alpha virt. eigenvalues --    2.49146   2.56428   2.57781   2.63068   2.65020
 Alpha virt. eigenvalues --    2.65501   2.66774   2.67670   2.71451   2.72020
 Alpha virt. eigenvalues --    2.74075   2.76009   2.78040   2.79077   2.79338
 Alpha virt. eigenvalues --    2.80168   2.81921   2.90063   2.97594   3.04950
 Alpha virt. eigenvalues --    3.11952   3.13215   3.16764   3.24375   3.27624
 Alpha virt. eigenvalues --    3.32207   3.40233   4.01893   4.14623   4.25255
 Alpha virt. eigenvalues --    4.27883   4.31323   4.35034   4.41072   4.42104
 Alpha virt. eigenvalues --    4.44175   4.48326   4.49666   4.53553   4.58630
 Alpha virt. eigenvalues --    4.67083   4.76786   5.56772   5.67716   6.27676
          Condensed to atoms (all electrons):
               1          2          3          4          5          6
     1  C    5.590132  -0.022499   0.013631  -0.003113  -0.041810  -0.002715
     2  C   -0.022499   6.155464  -0.410537  -0.088403   0.139985   0.020325
     3  C    0.013631  -0.410537   6.849127   0.354577  -0.494903  -0.098330
     4  N   -0.003113  -0.088403   0.354577   7.728212   0.392707  -0.211525
     5  C   -0.041810   0.139985  -0.494903   0.392707   6.629033   0.621849
     6  O   -0.002715   0.020325  -0.098330  -0.211525   0.621849   8.345800
     7  N   -0.003471   0.020432  -0.159057  -0.417598   0.073707  -0.084873
     8  C   -0.007085   0.019091  -0.380764  -0.187092  -0.950759  -0.397711
     9  C   -0.001356  -0.004206   0.009053   0.057699   1.107369   0.311755
    10  C   -0.001342   0.006954  -0.103355  -0.122204  -1.397182  -0.141190
    11  C   -0.000010   0.000407   0.003976   0.005001   0.072683   0.010803
    12  C   -0.000153   0.000861  -0.024667  -0.007362  -0.398387   0.003373
    13  C   -0.000864  -0.000805  -0.045495   0.019056  -0.465290   0.234948
    14  H    0.410904  -0.086307   0.028075   0.000524  -0.002206   0.000009
    15  H    0.419495  -0.066443  -0.008577   0.000476  -0.000348  -0.000061
    16  H    0.415268  -0.063944  -0.007681   0.000498   0.000448  -0.000059
    17  H   -0.031997   0.418228  -0.075264   0.007037  -0.004824  -0.000250
    18  H   -0.029368   0.417406  -0.076270   0.006875  -0.005146  -0.000209
    19  H    0.002536  -0.047079   0.416819  -0.055085  -0.007490   0.001381
    20  H    0.006860  -0.054501   0.432418  -0.059127  -0.017115   0.002025
    21  H   -0.002608   0.000518  -0.080807   0.237545   0.031230   0.008656
    22  H   -0.000150   0.000646  -0.002071   0.017723  -0.026040   0.007915
    23  H   -0.000003   0.000094   0.000693  -0.000515  -0.003374  -0.002862
    24  H   -0.000001   0.000012  -0.000202   0.001020   0.000239   0.000024
    25  H    0.000000   0.000000   0.000022   0.000002   0.003054  -0.000001
    26  S   -0.000006   0.000020  -0.001714  -0.000329  -0.066686   0.000416
    27  C    0.000000  -0.000003   0.000177   0.000030   0.010269  -0.000037
    28  F   -0.000000  -0.000000  -0.000002   0.000000  -0.000401   0.000001
    29  F    0.000000  -0.000000  -0.000000   0.000000  -0.000008   0.000000
    30  F   -0.000000   0.000000  -0.000013  -0.000003  -0.002108  -0.000000
    31  H   -0.000000   0.000001   0.000019   0.000011   0.001508   0.000198
               7          8          9         10         11         12
     1  C   -0.003471  -0.007085  -0.001356  -0.001342  -0.000010  -0.000153
     2  C    0.020432   0.019091  -0.004206   0.006954   0.000407   0.000861
     3  C   -0.159057  -0.380764   0.009053  -0.103355   0.003976  -0.024667
     4  N   -0.417598  -0.187092   0.057699  -0.122204   0.005001  -0.007362
     5  C    0.073707  -0.950759   1.107369  -1.397182   0.072683  -0.398387
     6  O   -0.084873  -0.397711   0.311755  -0.141190   0.010803   0.003373
     7  N    7.843579   0.206436  -0.357068   0.354202   0.042851  -0.025236
     8  C    0.206436  11.112095  -0.578403  -0.029529   0.553249  -1.519930
     9  C   -0.357068  -0.578403  16.401593  -3.312547  -1.095261  -0.528635
    10  C    0.354202  -0.029529  -3.312547  15.049464  -2.928323   1.773205
    11  C    0.042851   0.553249  -1.095261  -2.928323   9.905905  -1.525558
    12  C   -0.025236  -1.519930  -0.528635   1.773205  -1.525558   8.624146
    13  C   -0.090450  -1.798307  -6.190743  -2.317075   0.835847  -0.037381
    14  H    0.000009  -0.000041   0.000004  -0.000002  -0.000000  -0.000000
    15  H    0.000017   0.000008  -0.000038   0.000001   0.000000  -0.000000
    16  H    0.000008   0.000024  -0.000049   0.000003   0.000000  -0.000000
    17  H   -0.000182  -0.000208  -0.000362   0.000119   0.000002  -0.000001
    18  H    0.000202  -0.000686  -0.000056   0.000056   0.000003  -0.000001
    19  H   -0.000405  -0.002600   0.002047  -0.000575   0.000012   0.000004
    20  H    0.000695  -0.004268   0.002770  -0.001074  -0.000001  -0.000021
    21  H    0.029137   0.021077   0.000744  -0.000779   0.000078  -0.000019
    22  H    0.235288   0.009018   0.011217  -0.079102   0.035898  -0.003348
    23  H   -0.014352   0.072306   0.196678   0.055659  -0.020514   0.020966
    24  H   -0.010897   0.066140   0.089234   0.182455  -0.023930   0.034737
    25  H    0.000229   0.027467  -0.026562  -0.075100   0.312529   0.032771
    26  S   -0.006060  -0.258603  -0.847799   0.140662   0.030396  -0.325553
    27  C    0.001253   0.073698   0.135909  -0.002763   0.020899  -0.138554
    28  F    0.000012  -0.010118   0.014572   0.011973   0.058328  -0.023074
    29  F    0.000002  -0.002337   0.005604   0.002730  -0.002815   0.024120
    30  F   -0.000165  -0.025997  -0.056264   0.040744  -0.123829   0.105680
    31  H   -0.000587   0.006024   0.009092  -0.036180   0.045801   0.030238
              13         14         15         16         17         18
     1  C   -0.000864   0.410904   0.419495   0.415268  -0.031997  -0.029368
     2  C   -0.000805  -0.086307  -0.066443  -0.063944   0.418228   0.417406
     3  C   -0.045495   0.028075  -0.008577  -0.007681  -0.075264  -0.076270
     4  N    0.019056   0.000524   0.000476   0.000498   0.007037   0.006875
     5  C   -0.465290  -0.002206  -0.000348   0.000448  -0.004824  -0.005146
     6  O    0.234948   0.000009  -0.000061  -0.000059  -0.000250  -0.000209
     7  N   -0.090450   0.000009   0.000017   0.000008  -0.000182   0.000202
     8  C   -1.798307  -0.000041   0.000008   0.000024  -0.000208  -0.000686
     9  C   -6.190743   0.000004  -0.000038  -0.000049  -0.000362  -0.000056
    10  C   -2.317075  -0.000002   0.000001   0.000003   0.000119   0.000056
    11  C    0.835847  -0.000000   0.000000   0.000000   0.000002   0.000003
    12  C   -0.037381  -0.000000  -0.000000  -0.000000  -0.000001  -0.000001
    13  C   15.547710   0.000000  -0.000003  -0.000004  -0.000040  -0.000006
    14  H    0.000000   0.487702  -0.024076  -0.023920  -0.003061  -0.003043
    15  H   -0.000003  -0.024076   0.489644  -0.027839  -0.004808   0.003879
    16  H   -0.000004  -0.023920  -0.027839   0.489235   0.003904  -0.004721
    17  H   -0.000040  -0.003061  -0.004808   0.003904   0.506043  -0.033183
    18  H   -0.000006  -0.003043   0.003879  -0.004721  -0.033183   0.504321
    19  H    0.000365  -0.000065  -0.000304   0.002627   0.003827  -0.005426
    20  H    0.000415  -0.000055   0.002686  -0.000336  -0.005289   0.003834
    21  H    0.000553  -0.000003   0.000001   0.000001   0.000848   0.000858
    22  H    0.030331  -0.000000  -0.000000   0.000000   0.000002   0.000001
    23  H   -0.000592   0.000000  -0.000000  -0.000000  -0.000000  -0.000000
    24  H   -0.042132   0.000000  -0.000000  -0.000000  -0.000000   0.000000
    25  H    0.039681  -0.000000   0.000000   0.000000  -0.000000  -0.000000
    26  S    0.489208  -0.000000  -0.000000  -0.000000  -0.000000  -0.000000
    27  C    0.020189   0.000000   0.000000   0.000000   0.000000   0.000000
    28  F   -0.053544   0.000000   0.000000  -0.000000  -0.000000   0.000000
    29  F   -0.009311   0.000000   0.000000  -0.000000   0.000000   0.000000
    30  F    0.067256   0.000000   0.000000  -0.000000  -0.000000   0.000000
    31  H    0.267006  -0.000000   0.000000   0.000000   0.000000   0.000000
              19         20         21         22         23         24
     1  C    0.002536   0.006860  -0.002608  -0.000150  -0.000003  -0.000001
     2  C   -0.047079  -0.054501   0.000518   0.000646   0.000094   0.000012
     3  C    0.416819   0.432418  -0.080807  -0.002071   0.000693  -0.000202
     4  N   -0.055085  -0.059127   0.237545   0.017723  -0.000515   0.001020
     5  C   -0.007490  -0.017115   0.031230  -0.026040  -0.003374   0.000239
     6  O    0.001381   0.002025   0.008656   0.007915  -0.002862   0.000024
     7  N   -0.000405   0.000695   0.029137   0.235288  -0.014352  -0.010897
     8  C   -0.002600  -0.004268   0.021077   0.009018   0.072306   0.066140
     9  C    0.002047   0.002770   0.000744   0.011217   0.196678   0.089234
    10  C   -0.000575  -0.001074  -0.000779  -0.079102   0.055659   0.182455
    11  C    0.000012  -0.000001   0.000078   0.035898  -0.020514  -0.023930
    12  C    0.000004  -0.000021  -0.000019  -0.003348   0.020966   0.034737
    13  C    0.000365   0.000415   0.000553   0.030331  -0.000592  -0.042132
    14  H   -0.000065  -0.000055  -0.000003  -0.000000   0.000000   0.000000
    15  H   -0.000304   0.002686   0.000001  -0.000000  -0.000000  -0.000000
    16  H    0.002627  -0.000336   0.000001   0.000000  -0.000000  -0.000000
    17  H    0.003827  -0.005289   0.000848   0.000002  -0.000000  -0.000000
    18  H   -0.005426   0.003834   0.000858   0.000001  -0.000000   0.000000
    19  H    0.493514  -0.035945   0.002562   0.000004  -0.000000   0.000000
    20  H   -0.035945   0.494707   0.002587   0.000004  -0.000000   0.000000
    21  H    0.002562   0.002587   0.319400   0.002461   0.000001   0.000004
    22  H    0.000004   0.000004   0.002461   0.316080  -0.000117   0.005867
    23  H   -0.000000  -0.000000   0.000001  -0.000117   0.424959  -0.000104
    24  H    0.000000   0.000000   0.000004   0.005867  -0.000104   0.482108
    25  H   -0.000000  -0.000000  -0.000000  -0.000010   0.000011  -0.004103
    26  S    0.000000  -0.000000   0.000001   0.000480   0.000647  -0.000724
    27  C    0.000000  -0.000000  -0.000000  -0.000045  -0.000420   0.000186
    28  F    0.000000  -0.000000  -0.000000   0.000000  -0.000000   0.000011
    29  F    0.000000  -0.000000  -0.000000  -0.000000  -0.000000  -0.000001
    30  F    0.000000  -0.000000   0.000000  -0.000000  -0.000005  -0.000014
    31  H   -0.000000  -0.000000  -0.000000   0.000002  -0.004362   0.000013
              25         26         27         28         29         30
     1  C    0.000000  -0.000006   0.000000  -0.000000   0.000000  -0.000000
     2  C    0.000000   0.000020  -0.000003  -0.000000  -0.000000   0.000000
     3  C    0.000022  -0.001714   0.000177  -0.000002  -0.000000  -0.000013
     4  N    0.000002  -0.000329   0.000030   0.000000   0.000000  -0.000003
     5  C    0.003054  -0.066686   0.010269  -0.000401  -0.000008  -0.002108
     6  O   -0.000001   0.000416  -0.000037   0.000001   0.000000  -0.000000
     7  N    0.000229  -0.006060   0.001253   0.000012   0.000002  -0.000165
     8  C    0.027467  -0.258603   0.073698  -0.010118  -0.002337  -0.025997
     9  C   -0.026562  -0.847799   0.135909   0.014572   0.005604  -0.056264
    10  C   -0.075100   0.140662  -0.002763   0.011973   0.002730   0.040744
    11  C    0.312529   0.030396   0.020899   0.058328  -0.002815  -0.123829
    12  C    0.032771  -0.325553  -0.138554  -0.023074   0.024120   0.105680
    13  C    0.039681   0.489208   0.020189  -0.053544  -0.009311   0.067256
    14  H   -0.000000  -0.000000   0.000000   0.000000   0.000000   0.000000
    15  H    0.000000  -0.000000   0.000000   0.000000   0.000000   0.000000
    16  H    0.000000  -0.000000   0.000000  -0.000000  -0.000000  -0.000000
    17  H   -0.000000  -0.000000   0.000000  -0.000000   0.000000  -0.000000
    18  H   -0.000000  -0.000000   0.000000   0.000000   0.000000   0.000000
    19  H   -0.000000   0.000000   0.000000   0.000000   0.000000   0.000000
    20  H   -0.000000  -0.000000  -0.000000  -0.000000  -0.000000  -0.000000
    21  H   -0.000000   0.000001  -0.000000  -0.000000  -0.000000   0.000000
    22  H   -0.000010   0.000480  -0.000045   0.000000  -0.000000  -0.000000
    23  H    0.000011   0.000647  -0.000420  -0.000000  -0.000000  -0.000005
    24  H   -0.004103  -0.000724   0.000186   0.000011  -0.000001  -0.000014
    25  H    0.453673  -0.005054  -0.003509   0.000139  -0.000096   0.000087
    26  S   -0.005054  16.465729   0.160245  -0.071331  -0.093069  -0.070672
    27  C   -0.003509   0.160245   4.710298   0.139035   0.165997   0.149999
    28  F    0.000139  -0.071331   0.139035   9.293679  -0.033804  -0.044861
    29  F   -0.000096  -0.093069   0.165997  -0.033804   9.265687  -0.031270
    30  F    0.000087  -0.070672   0.149999  -0.044861  -0.031270   9.255008
    31  H   -0.000133  -0.015974   0.001603  -0.000004  -0.000036  -0.000821
              31
     1  C   -0.000000
     2  C    0.000001
     3  C    0.000019
     4  N    0.000011
     5  C    0.001508
     6  O    0.000198
     7  N   -0.000587
     8  C    0.006024
     9  C    0.009092
    10  C   -0.036180
    11  C    0.045801
    12  C    0.030238
    13  C    0.267006
    14  H   -0.000000
    15  H    0.000000
    16  H    0.000000
    17  H    0.000000
    18  H    0.000000
    19  H   -0.000000
    20  H   -0.000000
    21  H   -0.000000
    22  H    0.000002
    23  H   -0.004362
    24  H    0.000013
    25  H   -0.000133
    26  S   -0.015974
    27  C    0.001603
    28  F   -0.000004
    29  F   -0.000036
    30  F   -0.000821
    31  H    0.449641
 Mulliken charges:
               1
     1  C   -0.710276
     2  C   -0.355717
     3  C   -0.138877
     4  N   -0.676638
     5  C    0.799996
     6  O   -0.629657
     7  N   -0.637658
     8  C   -0.012195
     9  C    0.644009
    10  C   -1.069906
    11  C   -0.214426
    12  C   -0.092220
    13  C   -0.500522
    14  H    0.215549
    15  H    0.216291
    16  H    0.216536
    17  H    0.219460
    18  H    0.220681
    19  H    0.229276
    20  H    0.228733
    21  H    0.425954
    22  H    0.437946
    23  H    0.275207
    24  H    0.220056
    25  H    0.244902
    26  S    0.475769
    27  C    0.555543
    28  F   -0.280611
    29  F   -0.291394
    30  F   -0.262753
    31  H    0.246939
 Sum of Mulliken charges =  -0.00000
 Mulliken charges with hydrogens summed into heavy atoms:
               1
     1  C   -0.061900
     2  C    0.084424
     3  C    0.319132
     4  N   -0.250683
     5  C    0.799996
     6  O   -0.629657
     7  N   -0.199712
     8  C   -0.012195
     9  C    0.919216
    10  C   -0.849850
    11  C    0.030476
    12  C   -0.092220
    13  C   -0.253583
    26  S    0.475769
    27  C    0.555543
    28  F   -0.280611
    29  F   -0.291394
    30  F   -0.262753
 Electronic spatial extent (au):  <R**2>=           9891.5443
 Charge=             -0.0000 electrons
 Dipole moment (field-independent basis, Debye):
    X=              5.6730    Y=              4.6764    Z=             -0.1674  Tot=              7.3539
 Quadrupole moment (field-independent basis, Debye-Ang):
   XX=           -105.1869   YY=           -105.8012   ZZ=           -116.7270
   XY=             12.4784   XZ=              6.6429   YZ=              0.2650
 Traceless Quadrupole moment (field-independent basis, Debye-Ang):
   XX=              4.0515   YY=              3.4372   ZZ=             -7.4886
   XY=             12.4784   XZ=              6.6429   YZ=              0.2650
 Octapole moment (field-independent basis, Debye-Ang**2):
  XXX=            158.3165  YYY=             19.4287  ZZZ=             26.6315  XYY=            -18.6304
  XXY=             42.9976  XXZ=              6.3455  XZZ=            -17.7473  YZZ=             -3.3575
  YYZ=              6.1652  XYZ=             -0.8134
 Hexadecapole moment (field-independent basis, Debye-Ang**3):
 XXXX=         -11122.1640 YYYY=           -563.7708 ZZZZ=           -455.9042 XXXY=            138.3064
 XXXZ=             27.6328 YYYX=             53.7125 YYYZ=             -3.2623 ZZZX=           -100.1138
 ZZZY=              2.6097 XXYY=          -2032.3556 XXZZ=          -2021.2213 YYZZ=           -185.4436
 XXYZ=              4.4923 YYXZ=            -16.3155 ZZXY=             -3.4656
 N-N= 1.398326697769D+03 E-N=-5.875303271899D+03  KE= 1.299893041311D+03
 D1PCM: PCM CHGder 1st derivatives, ID1Alg=3 FixD1E=F DoIter=F DoCFld=F I1PDM=0.
 Calling FoFJK, ICntrl=      2127 FMM=F ISym2X=0 I1Cent= 0 IOpClX= 0 NMat=1 NMatS=1 NMatT=0.
 ***** Axes restored to original set *****
 -------------------------------------------------------------------
 Center     Atomic                   Forces (Hartrees/Bohr)
 Number     Number              X              Y              Z
 -------------------------------------------------------------------
      1        6          -0.005101795    0.001075932    0.000276405
      2        6           0.004891465   -0.005352678   -0.000415977
      3        6          -0.005419123    0.006369269   -0.000030998
      4        7           0.012368350   -0.035244050   -0.001684485
      5        6          -0.012173274    0.022300535    0.000409099
      6        8           0.001359221    0.016093796    0.001142693
      7        7           0.023941925   -0.024838014   -0.002671401
      8        6          -0.012868367    0.001916944    0.001512592
      9        6           0.005650664   -0.003110564   -0.001138497
     10        6           0.000396923    0.005739943    0.000667268
     11        6          -0.008814659    0.000448182    0.000314527
     12        6           0.002028136    0.001718347   -0.002280735
     13        6          -0.003165488   -0.012027012   -0.001611479
     14        1           0.005793988    0.009385339   -0.000108194
     15        1          -0.000338898   -0.004937128    0.009359409
     16        1          -0.001696978   -0.004565554   -0.009232386
     17        1           0.001731948    0.003175758    0.008711050
     18        1           0.000208723    0.003593009   -0.008713977
     19        1           0.000522631   -0.003194121   -0.010334431
     20        1           0.001975552   -0.003456416    0.010075930
     21        1          -0.003620429    0.016197432    0.000895233
     22        1           0.005920031    0.015021252    0.000156702
     23        1          -0.009310351   -0.002613194    0.000618353
     24        1          -0.002078793   -0.002725708   -0.000069776
     25        1           0.001363790   -0.001636502   -0.000554993
     26       16          -0.002842282   -0.002655183    0.009196588
     27        6           0.003696850    0.005868064    0.001454091
     28        9          -0.001192155    0.038961217    0.011569196
     29        9          -0.034117811   -0.019793547    0.000108490
     30        9           0.031220857   -0.023517134   -0.018401662
     31        1          -0.000330652    0.001801785    0.000781363
 -------------------------------------------------------------------
 Cartesian Forces:  Max     0.038961217 RMS     0.010766645

 GradGradGradGradGradGradGradGradGradGradGradGradGradGradGradGradGradGrad
 Berny optimization.
 FormGI is forming the generalized inverse of G from B-inverse, IUseBI=4.
 Internal  Forces:  Max     0.040978623 RMS     0.008677195
 Search for a local minimum.
 Step number   1 out of a maximum of  158
 All quantities printed in internal units (Hartrees-Bohrs-Radians)
 Mixed Optimization -- RFO/linear search
 Second derivative matrix not updated -- first step.
 ITU=  0
     Eigenvalues ---    0.00230   0.00325   0.00413   0.00424   0.00995
     Eigenvalues ---    0.01173   0.01469   0.01640   0.01681   0.01821
     Eigenvalues ---    0.01942   0.01977   0.02049   0.02084   0.02103
     Eigenvalues ---    0.02115   0.02137   0.02141   0.02142   0.02179
     Eigenvalues ---    0.03749   0.04438   0.04931   0.05552   0.05672
     Eigenvalues ---    0.05785   0.08042   0.09172   0.11982   0.12664
     Eigenvalues ---    0.15140   0.15610   0.15998   0.16000   0.16000
     Eigenvalues ---    0.16000   0.16000   0.16000   0.16000   0.16000
     Eigenvalues ---    0.16000   0.21964   0.22000   0.22000   0.22001
     Eigenvalues ---    0.22003   0.22965   0.24000   0.24330   0.24999
     Eigenvalues ---    0.24999   0.25000   0.25000   0.25000   0.25000
     Eigenvalues ---    0.25000   0.25000   0.26374   0.29121   0.29810
     Eigenvalues ---    0.32331   0.32346   0.32400   0.32406   0.32496
     Eigenvalues ---    0.32523   0.32554   0.35636   0.35643   0.35694
     Eigenvalues ---    0.36658   0.37892   0.39695   0.40676   0.41279
     Eigenvalues ---    0.42423   0.42450   0.44212   0.45327   0.45938
     Eigenvalues ---    0.46263   0.48577   0.48696   0.48852   0.51189
     Eigenvalues ---    0.52305   0.94950
 RFO step:  Lambda=-2.91815845D-02 EMin= 2.30000000D-03
 Linear search not attempted -- first point.
 Iteration  1 RMS(Cart)=  0.08694276 RMS(Int)=  0.00240805
 Iteration  2 RMS(Cart)=  0.00390011 RMS(Int)=  0.00027504
 Iteration  3 RMS(Cart)=  0.00001023 RMS(Int)=  0.00027494
 Iteration  4 RMS(Cart)=  0.00000001 RMS(Int)=  0.00027494
 Variable       Old X    -DE/DX   Delta X   Delta X   Delta X     New X
                                 (Linear)    (Quad)   (Total)
    R1        2.88343   0.00165   0.00000   0.00505   0.00505   2.88848
    R2        2.09842  -0.01065   0.00000  -0.03003  -0.03003   2.06839
    R3        2.09946  -0.01028   0.00000  -0.02903  -0.02903   2.07043
    R4        2.09898  -0.01014   0.00000  -0.02861  -0.02861   2.07037
    R5        2.89752  -0.00568   0.00000  -0.01774  -0.01774   2.87978
    R6        2.10119  -0.00898   0.00000  -0.02543  -0.02543   2.07575
    R7        2.10108  -0.00902   0.00000  -0.02555  -0.02555   2.07553
    R8        2.74522  -0.00134   0.00000  -0.00328  -0.00328   2.74194
    R9        2.10215  -0.01038   0.00000  -0.02944  -0.02944   2.07271
   R10        2.10243  -0.01029   0.00000  -0.02919  -0.02919   2.07324
   R11        2.57608  -0.00115   0.00000  -0.00209  -0.00209   2.57400
   R12        1.95088  -0.01630   0.00000  -0.03596  -0.03596   1.91492
   R13        2.30732   0.01609   0.00000   0.01644   0.01644   2.32376
   R14        2.58684   0.01029   0.00000   0.01902   0.01902   2.60586
   R15        2.71970  -0.03258   0.00000  -0.07645  -0.07645   2.64325
   R16        1.95054  -0.01539   0.00000  -0.03392  -0.03392   1.91662
   R17        2.67769  -0.01580   0.00000  -0.03524  -0.03519   2.64249
   R18        2.66317  -0.00820   0.00000  -0.01807  -0.01801   2.64516
   R19        2.64463  -0.00646   0.00000  -0.01339  -0.01340   2.63123
   R20        2.03064   0.00459   0.00000   0.01161   0.01161   2.04225
   R21        2.63893  -0.00847   0.00000  -0.01713  -0.01712   2.62181
   R22        2.04643   0.00306   0.00000   0.00793   0.00793   2.05436
   R23        2.63723  -0.00098   0.00000  -0.00127  -0.00131   2.63593
   R24        2.04562   0.00218   0.00000   0.00563   0.00563   2.05125
   R25        2.63909  -0.00145   0.00000  -0.00232  -0.00237   2.63672
   R26        3.39538  -0.00382   0.00000  -0.01304  -0.01304   3.38234
   R27        2.04654   0.00175   0.00000   0.00454   0.00454   2.05108
   R28        3.44643  -0.00536   0.00000  -0.01965  -0.01965   3.42677
   R29        2.61204  -0.03783   0.00000  -0.07328  -0.07328   2.53876
   R30        2.61042  -0.03862   0.00000  -0.07459  -0.07459   2.53583
   R31        2.61329  -0.04098   0.00000  -0.07958  -0.07958   2.53371
    A1        1.91235   0.00333   0.00000   0.01878   0.01864   1.93099
    A2        1.92499   0.00235   0.00000   0.01195   0.01186   1.93686
    A3        1.92672   0.00228   0.00000   0.01132   0.01124   1.93796
    A4        1.89585  -0.00258   0.00000  -0.01221  -0.01236   1.88350
    A5        1.89744  -0.00267   0.00000  -0.01318  -0.01331   1.88413
    A6        1.90599  -0.00288   0.00000  -0.01750  -0.01753   1.88846
    A7        1.94237  -0.00100   0.00000  -0.00090  -0.00089   1.94148
    A8        1.89880   0.00157   0.00000   0.01277   0.01276   1.91156
    A9        1.90286   0.00126   0.00000   0.01017   0.01017   1.91303
   A10        1.91068  -0.00027   0.00000  -0.00354  -0.00357   1.90712
   A11        1.91035  -0.00007   0.00000  -0.00263  -0.00266   1.90769
   A12        1.89822  -0.00150   0.00000  -0.01618  -0.01625   1.88197
   A13        1.93666  -0.00436   0.00000  -0.01466  -0.01461   1.92205
   A14        1.90736   0.00233   0.00000   0.01238   0.01237   1.91972
   A15        1.90421   0.00241   0.00000   0.01448   0.01449   1.91870
   A16        1.90902   0.00094   0.00000   0.00182   0.00187   1.91089
   A17        1.90380   0.00131   0.00000   0.00609   0.00614   1.90995
   A18        1.90247  -0.00263   0.00000  -0.02036  -0.02040   1.88207
   A19        2.12855  -0.00476   0.00000  -0.01912  -0.01912   2.10943
   A20        2.07676  -0.00077   0.00000  -0.00710  -0.00710   2.06966
   A21        2.07783   0.00554   0.00000   0.02623   0.02623   2.10406
   A22        2.08179   0.01532   0.00000   0.05490   0.05488   2.13666
   A23        2.08433  -0.02686   0.00000  -0.09617  -0.09619   1.98814
   A24        2.11699   0.01155   0.00000   0.04141   0.04139   2.15838
   A25        2.23302  -0.00367   0.00000  -0.01474  -0.01474   2.21828
   A26        2.02766   0.00660   0.00000   0.03257   0.03257   2.06023
   A27        2.02231  -0.00293   0.00000  -0.01782  -0.01782   2.00449
   A28        2.17356  -0.00391   0.00000  -0.01304  -0.01309   2.16047
   A29        2.05280  -0.00490   0.00000  -0.01658  -0.01662   2.03618
   A30        2.05683   0.00881   0.00000   0.02962   0.02971   2.08654
   A31        2.10457  -0.00480   0.00000  -0.02035  -0.02032   2.08425
   A32        2.15433  -0.00625   0.00000  -0.03556  -0.03558   2.11876
   A33        2.02427   0.01105   0.00000   0.05591   0.05590   2.08017
   A34        2.11671  -0.00210   0.00000  -0.00885  -0.00879   2.10792
   A35        2.09883  -0.00054   0.00000  -0.00397  -0.00400   2.09483
   A36        2.06762   0.00264   0.00000   0.01283   0.01279   2.08042
   A37        2.09713  -0.00231   0.00000  -0.00701  -0.00704   2.09008
   A38        2.08763   0.00085   0.00000   0.00192   0.00193   2.08956
   A39        2.09843   0.00146   0.00000   0.00509   0.00511   2.10354
   A40        2.08800  -0.00095   0.00000  -0.00048  -0.00060   2.08740
   A41        2.10067   0.00098   0.00000   0.00202   0.00205   2.10272
   A42        2.09448  -0.00003   0.00000  -0.00162  -0.00158   2.09289
   A43        2.10311   0.00136   0.00000   0.00708   0.00701   2.11012
   A44        2.08645  -0.00149   0.00000  -0.00780  -0.00777   2.07868
   A45        2.09362   0.00013   0.00000   0.00073   0.00076   2.09438
   A46        1.66757   0.01283   0.00000   0.04594   0.04594   1.71352
   A47        1.92160   0.01974   0.00000   0.06916   0.06772   1.98932
   A48        1.89485   0.00824   0.00000   0.03107   0.02977   1.92462
   A49        1.93067   0.01767   0.00000   0.06324   0.06173   1.99241
   A50        1.89943  -0.01370   0.00000  -0.04910  -0.05021   1.84921
   A51        1.92396  -0.02183   0.00000  -0.08109  -0.08256   1.84140
   A52        1.89258  -0.01066   0.00000  -0.03508  -0.03630   1.85628
    D1       -3.14133   0.00003   0.00000   0.00080   0.00080  -3.14052
    D2        1.03523  -0.00003   0.00000  -0.00261  -0.00260   1.03263
    D3       -1.03245   0.00014   0.00000   0.00366   0.00366  -1.02879
    D4        1.05572  -0.00032   0.00000  -0.00330  -0.00333   1.05240
    D5       -1.05090  -0.00039   0.00000  -0.00671  -0.00674  -1.05764
    D6       -3.11858  -0.00021   0.00000  -0.00044  -0.00047  -3.11906
    D7       -1.05217   0.00025   0.00000   0.00340   0.00343  -1.04874
    D8        3.12439   0.00019   0.00000  -0.00001   0.00002   3.12441
    D9        1.05671   0.00037   0.00000   0.00626   0.00628   1.06299
   D10       -3.12622  -0.00029   0.00000  -0.00410  -0.00410  -3.13032
   D11        1.05041  -0.00022   0.00000  -0.00515  -0.00512   1.04529
   D12       -1.02820   0.00016   0.00000   0.00364   0.00361  -1.02459
   D13       -1.02660   0.00085   0.00000   0.00894   0.00892  -1.01768
   D14       -3.13315   0.00092   0.00000   0.00789   0.00790  -3.12525
   D15        1.07143   0.00131   0.00000   0.01668   0.01663   1.08806
   D16        1.05249  -0.00118   0.00000  -0.01450  -0.01448   1.03800
   D17       -1.05407  -0.00111   0.00000  -0.01555  -0.01550  -1.06957
   D18       -3.13267  -0.00073   0.00000  -0.00676  -0.00677  -3.13944
   D19        3.13420   0.00016   0.00000   0.00262   0.00261   3.13680
   D20        0.00210   0.00008   0.00000   0.00099   0.00098   0.00308
   D21       -1.04342   0.00091   0.00000   0.00990   0.00990  -1.03352
   D22        2.10767   0.00083   0.00000   0.00827   0.00828   2.11595
   D23        1.03593  -0.00095   0.00000  -0.01011  -0.01011   1.02581
   D24       -2.09617  -0.00103   0.00000  -0.01175  -0.01174  -2.10791
   D25        0.00868   0.00024   0.00000   0.00448   0.00449   0.01317
   D26       -3.12016  -0.00043   0.00000  -0.00877  -0.00879  -3.12895
   D27        3.14077   0.00028   0.00000   0.00594   0.00597  -3.13645
   D28        0.01193  -0.00038   0.00000  -0.00731  -0.00732   0.00462
   D29        3.13001   0.00029   0.00000   0.00613   0.00611   3.13612
   D30        0.01064   0.00033   0.00000   0.00589   0.00587   0.01651
   D31        0.00144  -0.00040   0.00000  -0.00747  -0.00745  -0.00601
   D32       -3.11793  -0.00037   0.00000  -0.00771  -0.00769  -3.12562
   D33        0.08175  -0.00011   0.00000  -0.00260  -0.00263   0.07912
   D34       -3.05770  -0.00023   0.00000  -0.00494  -0.00491  -3.06262
   D35       -3.08201  -0.00004   0.00000  -0.00181  -0.00184  -3.08385
   D36        0.06172  -0.00016   0.00000  -0.00415  -0.00412   0.05760
   D37       -3.13603  -0.00035   0.00000  -0.00726  -0.00726   3.13989
   D38        0.00929  -0.00030   0.00000  -0.00620  -0.00624   0.00305
   D39        0.00341  -0.00024   0.00000  -0.00496  -0.00497  -0.00155
   D40       -3.13445  -0.00019   0.00000  -0.00390  -0.00395  -3.13840
   D41        3.13184   0.00025   0.00000   0.00547   0.00546   3.13731
   D42       -0.00199   0.00021   0.00000   0.00481   0.00484   0.00284
   D43       -0.00776   0.00015   0.00000   0.00333   0.00334  -0.00442
   D44       -3.14159   0.00011   0.00000   0.00268   0.00271  -3.13888
   D45        0.00128   0.00002   0.00000   0.00014   0.00011   0.00139
   D46        3.14015   0.00031   0.00000   0.00580   0.00578  -3.13726
   D47        3.13941  -0.00006   0.00000  -0.00102  -0.00107   3.13834
   D48       -0.00491   0.00023   0.00000   0.00464   0.00460  -0.00031
   D49        0.00741   0.00013   0.00000   0.00306   0.00312   0.01053
   D50       -3.13374   0.00005   0.00000   0.00129   0.00133  -3.13241
   D51        3.14138   0.00016   0.00000   0.00364   0.00367  -3.13814
   D52        0.00023   0.00008   0.00000   0.00186   0.00188   0.00211
   D53       -0.00250  -0.00040   0.00000  -0.00812  -0.00809  -0.01058
   D54       -3.13440   0.00007   0.00000   0.00175   0.00176  -3.13264
   D55        3.13865  -0.00032   0.00000  -0.00633  -0.00629   3.13236
   D56        0.00675   0.00015   0.00000   0.00354   0.00356   0.01031
   D57       -0.00179   0.00032   0.00000   0.00649   0.00648   0.00469
   D58       -3.14065   0.00003   0.00000   0.00082   0.00077  -3.13988
   D59        3.13014  -0.00015   0.00000  -0.00332  -0.00329   3.12685
   D60       -0.00871  -0.00044   0.00000  -0.00899  -0.00900  -0.01771
   D61       -1.38940  -0.00142   0.00000  -0.04040  -0.04038  -1.42979
   D62        1.76192  -0.00094   0.00000  -0.03050  -0.03051   1.73141
   D63        1.23709  -0.00189   0.00000  -0.03964  -0.03942   1.19767
   D64       -2.96841  -0.00197   0.00000  -0.03993  -0.04001  -3.00841
   D65       -0.89372   0.00052   0.00000  -0.02628  -0.02642  -0.92013
         Item               Value     Threshold  Converged?
 Maximum Force            0.040979     0.000450     NO 
 RMS     Force            0.008677     0.000300     NO 
 Maximum Displacement     0.308285     0.001800     NO 
 RMS     Displacement     0.087395     0.001200     NO 
 Predicted change in Energy=-1.593157D-02
 GradGradGradGradGradGradGradGradGradGradGradGradGradGradGradGradGradGrad

                          Input orientation:                          
 ---------------------------------------------------------------------
 Center     Atomic      Atomic             Coordinates (Angstroms)
 Number     Number       Type             X           Y           Z
 ---------------------------------------------------------------------
      1          6           0       -1.676038    1.809985    0.274013
      2          6           0       -0.287746    1.183610    0.144921
      3          6           0        0.796782    2.252513    0.085299
      4          7           0        2.101523    1.632789   -0.052253
      5          6           0        3.230258    2.391004   -0.132166
      6          8           0        3.204549    3.619268   -0.079003
      7          7           0        4.388218    1.656145   -0.275831
      8          6           0        5.692014    2.149713   -0.389860
      9          6           0        6.022984    3.504039   -0.282015
     10          6           0        6.701458    1.208991   -0.625200
     11          6           0        8.024397    1.605433   -0.757690
     12          6           0        8.357363    2.955129   -0.643137
     13          6           0        7.353273    3.895192   -0.408786
     14          1           0       -2.446850    1.034083    0.317061
     15          1           0       -1.895888    2.456310   -0.582912
     16          1           0       -1.752318    2.412728    1.185721
     17          1           0       -0.244297    0.571879   -0.766381
     18          1           0       -0.100071    0.523409    1.002376
     19          1           0        0.774824    2.860327    0.998054
     20          1           0        0.617919    2.919697   -0.767070
     21          1           0        2.155994    0.621815   -0.094775
     22          1           0        4.309093    0.646159   -0.324108
     23          1           0        5.268107    4.255136   -0.097740
     24          1           0        6.452514    0.154398   -0.712900
     25          1           0        8.792364    0.862405   -0.948471
     26         16           0       10.055907    3.489667   -0.824260
     27          6           0       10.624170    3.117291    0.857027
     28          9           0       10.682180    1.804295    1.135498
     29          9           0       11.866585    3.588990    1.043049
     30          9           0        9.867183    3.655629    1.823909
     31          1           0        7.604858    4.947289   -0.320132
 ---------------------------------------------------------------------
                    Distance matrix (angstroms):
                    1          2          3          4          5
     1  C    0.000000
     2  C    1.528517   0.000000
     3  C    2.519184   1.523912   0.000000
     4  N    3.795764   2.439108   1.450974   0.000000
     5  C    4.957248   3.729736   2.447095   1.362100   0.000000
     6  O    5.217112   4.263648   2.773510   2.272329   1.229683
     7  N    6.091076   4.718577   3.658481   2.297718   1.378960
     8  C    7.405696   6.080861   4.919313   3.643187   2.486940
     9  C    7.902780   6.737357   5.386503   4.351117   3.010086
    10  C    8.447025   7.031551   6.038124   4.654812   3.699928
    11  C    9.757290   8.371641   7.305324   5.964799   4.898181
    12  C   10.140101   8.859866   7.628018   6.421312   5.183293
    13  C    9.292081   8.126773   6.777174   5.729437   4.397539
    14  H    1.094545   2.171110   3.472670   4.602450   5.854280
    15  H    1.095623   2.176149   2.781818   4.115712   5.146340
    16  H    1.095595   2.176916   2.781099   4.122254   5.153966
    17  H    2.159910   1.098441   2.152611   2.671775   3.972905
    18  H    2.160895   1.098325   2.152946   2.681414   3.983238
    19  H    2.763001   2.160617   1.096833   2.090484   2.743505
    20  H    2.752736   2.160082   1.097114   2.090018   2.739878
    21  H    4.028924   2.518916   2.130506   1.013333   2.070138
[...]
 00341,0.00000596,0.00000020,0.00007593,-0.00002255,-0.00002749,0.00002
 208,-0.00001204,-0.00000159,-0.00003661,-0.00011636,-0.00005435,0.0001
 0126,-0.00022034,-0.00004399,-0.00085813,-0.00077148,-0.00015293,-0.00
 093582,0.00000521,-0.00005893,0.00122032,0.00106682,-0.00042496,0.2532
 0729,0.00000519,0.00001706,0.00000246,0.00000428,-0.00003439,-0.000010
 07,-0.00010869,0.00005732,-0.00000567,0.00042482,0.00016876,0.00003257
 ,-0.00096812,0.00032068,0.00021627,0.00021504,-0.00012826,-0.00004386,
 0.00148653,0.00064550,-0.00011755,-0.00055206,-0.00266711,0.00001927,0
 .00335037,0.00120168,-0.00014841,-0.00030064,-0.00391985,-0.00216453,-
 0.02855833,-0.00537946,0.00393130,-0.03068768,-0.04898114,0.00994891,0
 .00835406,0.00752201,-0.00085082,0.00001295,0.00000146,-0.00000041,-0.
 00000196,-0.00000315,-0.00000009,-0.00000111,-0.00000271,-0.00000088,-
 0.00000117,0.00000173,0.00000248,-0.00000036,0.00000606,-0.00000158,0.
 00003192,-0.00001430,-0.00001151,0.00000542,-0.00000502,-0.00000306,-0
 .00000542,-0.00005301,-0.00002833,0.00017205,-0.00008110,-0.00007429,0
 .00037135,0.00021224,-0.00009382,-0.00114621,-0.00012971,-0.00002710,-
 0.00056334,0.00093148,0.00103370,0.05150353,0.08480515,-0.00000754,-0.
 00002714,-0.00000689,-0.00001374,0.00005139,0.00001713,0.00018006,-0.0
 0011741,0.00001297,-0.00066535,-0.00018164,0.00005162,0.00145544,-0.00
 080129,-0.00036395,-0.00025480,0.00044157,0.00003144,-0.00228215,0.000
 04164,-0.00047795,0.00128730,0.00022535,-0.00069713,0.00037029,-0.0013
 8371,0.00558434,-0.00064156,-0.00056297,0.00532268,-0.00191519,0.00087
 264,0.00128723,0.01257005,0.00503601,-0.04528625,0.00358652,0.00038899
 ,0.00037483,-0.00001979,-0.00000213,0.00000047,0.00000208,0.00000609,-
 0.00000078,0.00000090,0.00000521,0.00000448,0.00000379,-0.00000248,-0.
 00000020,0.00000162,-0.00000759,-0.00000076,-0.00005557,0.00002418,0.0
 0002068,-0.00000259,0.00001566,0.00000063,0.00001709,0.00006646,0.0000
 3889,-0.00001212,0.00007170,0.00002003,0.00002005,0.00000499,0.0003026
 6,-0.00019560,-0.00017482,0.00032717,-0.00057058,0.00030960,-0.0026684
 0,0.00275537,-0.02932278,0.24688329,0.00001000,0.00003841,0.00000805,0
 .00001214,-0.00006646,-0.00002041,-0.00027012,0.00014240,0.00000068,0.
 00085462,0.00030966,0.00008644,-0.00153499,0.00007098,0.00010401,0.000
 57010,-0.00000415,-0.00001561,0.00125428,-0.00005493,-0.00021273,-0.00
 095236,-0.00041112,-0.00024963,-0.00032007,-0.00007299,0.00187300,-0.0
 0018470,0.00001700,0.00105372,0.00003758,0.00061490,-0.00046557,-0.017
 15936,-0.00002633,-0.01911555,-0.00074659,-0.00128318,-0.00093703,0.00
 003793,0.00001097,0.00000086,-0.00000540,-0.00001299,-0.00000026,-0.00
 000657,-0.00000911,-0.00000385,-0.00000341,0.00000478,0.00000588,-0.00
 000370,0.00000989,-0.00000107,0.00004476,-0.00002901,-0.00002204,0.000
 00162,-0.00001449,-0.00000726,-0.00004751,-0.00008804,-0.00005953,-0.0
 0002034,-0.00006234,-0.00006839,-0.00015381,0.00002484,0.00007852,0.00
 012809,0.00008534,0.00007272,-0.00000533,-0.00033266,-0.00052453,-0.03
 669777,-0.00220255,-0.00260030,0.51989813,-0.00000782,-0.00000379,0.00
 000246,0.00000833,0.00002335,-0.00001045,-0.00001104,0.00002030,0.0000
 2043,-0.00012799,-0.00017293,-0.00001848,0.00016048,0.00040363,-0.0001
 1875,-0.00005426,-0.00030936,-0.00000383,-0.00044866,-0.00038767,0.000
 12521,0.00040569,0.00004374,-0.00024357,0.00034922,-0.00048564,-0.0009
 3013,-0.00083109,-0.00129920,0.00195888,-0.00298216,0.00111976,-0.0001
 2725,-0.00069046,-0.00435067,-0.00754001,0.00069684,0.00062770,0.00042
 569,-0.00000576,-0.00000238,-0.00000231,0.00000638,-0.00000586,0.00000
 926,0.00000310,0.00000481,-0.00000737,-0.00000270,-0.00000061,-0.00000
 890,-0.00000245,-0.00001583,0.00001503,-0.00000346,0.00000865,-0.00001
 406,0.00000649,-0.00000425,0.00001176,-0.00002823,0.00003701,0.0000085
 7,-0.00009370,0.00006493,-0.00000943,0.00005561,0.00001614,0.00001887,
 -0.00029142,-0.00013306,0.00001511,-0.00032835,-0.00061696,-0.00201899
 ,0.00046732,-0.02985919,0.01690678,0.00667617,0.49953404,0.00001831,0.
 00007675,0.00002437,0.00004932,-0.00015302,-0.00002833,-0.00052219,0.0
 0034423,0.00010815,0.00193677,0.00052152,-0.00008920,-0.00407832,0.001
 84442,0.00084523,0.00107642,-0.00097128,-0.00037893,0.00582459,0.00018
 195,-0.00092043,-0.00358460,-0.00128092,0.00077839,0.00209169,-0.00005
 042,-0.00155591,0.00186021,0.00086251,-0.00100301,0.00520284,-0.000401
 83,-0.00141675,-0.01599758,-0.00680621,0.00869281,0.00486494,0.0040083
 1,-0.00074784,0.00005539,0.00000190,0.00000080,-0.00000782,-0.00000578
 ,0.00000040,0.00000475,-0.00001999,-0.00002537,-0.00002067,-0.00000855
 ,-0.00001988,-0.00000316,0.00003900,-0.00000315,0.00016049,-0.00008307
 ,-0.00010014,0.00001375,-0.00001815,-0.00001675,-0.00004306,-0.0001655
 5,0.00001973,0.00007197,-0.00022572,0.00014458,0.00053266,0.00031844,0
 .00010937,0.00088182,0.00043810,0.00007537,-0.00043522,-0.00060375,0.0
 0083042,-0.01868535,0.01256140,-0.13547104,-0.01129625,-0.00093657,0.4
 9017268,-0.00000209,-0.00001015,-0.00000203,-0.00000454,0.00001757,0.0
 0000556,0.00006856,-0.00003940,-0.00000098,-0.00021804,-0.00006777,-0.
 00002041,0.00041556,-0.00008921,-0.00003447,-0.00012941,0.00004492,0.0
 0000724,-0.00039545,0.00000726,0.00002309,0.00024870,0.00047877,0.0001
 2199,-0.00032028,-0.00028059,-0.00008710,0.00040763,0.00003757,-0.0001
 7317,-0.00041080,0.00014784,-0.00043861,0.00120056,0.00011465,-0.00009
 761,0.00075201,-0.00004454,-0.00005912,-0.00000889,-0.00000219,0.00000
 003,0.00000105,0.00000346,-0.00000030,0.00000135,0.00000208,0.00000134
 ,0.00000100,-0.00000124,-0.00000110,0.00000140,-0.00000189,-0.00000020
 ,-0.00001278,0.00000693,0.00000624,-0.00000181,0.00000415,0.00000140,0
 .00001439,0.00002300,0.00001561,0.00000928,0.00001820,0.00001817,0.000
 03112,-0.00001430,0.00000978,-0.00002322,-0.00002079,-0.00000509,-0.00
 001505,0.00010304,0.00022857,0.00501486,0.00491967,-0.00610851,-0.0704
 4895,-0.01134516,0.00292445,0.08045457,0.00000605,0.00001061,0.0000012
 3,0.00000202,-0.00003027,0.00000349,-0.00005182,0.00002766,0.00001006,
 0.00028498,0.00014542,-0.00000449,-0.00056382,0.00002366,0.00012555,0.
 00015187,0.00003998,-0.00004351,0.00095036,0.00020498,-0.00020519,-0.0
 0080801,0.00027809,0.00022683,-0.00023732,-0.00003753,0.00000630,0.001
 22852,0.00048520,-0.00029516,0.00066597,-0.00099887,-0.00098350,-0.002
 93635,0.00044952,-0.00083569,0.00106570,0.00037469,-0.00017626,0.00000
 887,0.00000104,0.00000135,-0.00000446,0.00000324,-0.00000482,-0.000000
 67,-0.00000499,0.00000017,-0.00000127,-0.00000166,0.00000137,0.0000007
 9,0.00001360,-0.00000864,0.00002106,-0.00001418,-0.00000575,-0.0000018
 6,0.00000122,-0.00000805,0.00001090,-0.00003777,0.00000198,0.00006213,
 -0.00007002,0.00006270,0.00005851,0.00003111,0.00000848,0.00023671,0.0
 0009902,0.00008192,-0.00000496,0.00023688,0.00071905,0.00002346,-0.011
 86127,0.02053016,-0.01242126,-0.24229471,0.07735852,0.03199442,0.36858
 654,-0.00000616,-0.00002053,-0.00000618,-0.00001192,0.00004542,0.00000
 308,0.00013264,-0.00008562,-0.00002809,-0.00052445,-0.00016562,0.00002
 397,0.00108372,-0.00038612,-0.00022142,-0.00028676,0.00018125,0.000105
 24,-0.00157931,-0.00011479,0.00029336,0.00108930,0.00018133,-0.0001868
 0,-0.00036330,-0.00016350,0.00027983,-0.00088734,-0.00018895,0.0000216
 7,-0.00090679,0.00064178,0.00043969,0.00366984,0.00001929,0.00086749,-
 0.00084190,-0.00085269,0.00009461,-0.00001533,-0.00000080,-0.00000082,
 0.00000361,-0.00000033,0.00000198,-0.00000098,0.00000656,0.00000585,0.
 00000512,0.00000281,0.00000443,0.00000045,-0.00001440,0.00000421,-0.00
 004288,0.00002385,0.00002438,-0.00000238,0.00000296,0.00000715,0.00000
 597,0.00004962,-0.00000824,-0.00003641,0.00007838,-0.00007042,-0.00009
 571,-0.00005734,-0.00003372,-0.00024799,-0.00011495,-0.00011836,0.0000
 7755,0.00008868,-0.00022862,-0.00280525,0.03245163,-0.02870608,0.00518
 880,0.09038215,-0.11077136,-0.01588753,-0.10263417,0.11112795,-0.00001
 144,-0.00004727,-0.00000967,-0.00002140,0.00008536,0.00002755,0.000320
 40,-0.00018793,-0.00000385,-0.00111112,-0.00032262,-0.00005424,0.00233
 118,-0.00092457,-0.00032706,-0.00057922,0.00048865,0.00006521,-0.00311
 121,-0.00007785,0.00027948,0.00220653,0.00075393,-0.00024250,-0.000714
 12,-0.00085129,0.00045766,-0.00112085,0.00025315,0.00063941,-0.0004202
 1,0.00151141,-0.00018047,-0.00055121,0.00010189,-0.00647965,0.00064253
 ,-0.00132031,-0.00053031,-0.00003929,-0.00000720,0.00000052,0.00000395
 ,0.00001302,-0.00000153,0.00000378,0.00000905,0.00000683,0.00000705,-0
 .00000410,-0.00000236,0.00000370,-0.00001142,-0.00000114,-0.00007778,0
 .00003736,0.00003638,-0.00001008,0.00001858,0.00000653,0.00004893,0.00
 011300,0.00006022,-0.00001639,0.00013149,0.00005037,-0.00002300,-0.000
 08091,0.00008977,-0.00019001,-0.00014187,0.00009125,0.00001503,0.00014
 913,-0.00015453,-0.02721152,-0.00710743,-0.00914746,-0.27556057,-0.051
 15364,-0.03545642,-0.02408891,-0.04193595,0.00951991,0.39566483,-0.000
 00087,-0.00000799,-0.00000243,-0.00000518,0.00001190,0.00000686,0.0000
 6056,-0.00003816,-0.00000146,-0.00018343,-0.00003385,-0.00000827,0.000
 40493,-0.00022936,-0.00004946,-0.00010335,0.00013629,0.00001238,-0.000
 51331,0.00003413,0.00003332,0.00037001,0.00005387,-0.00002703,-0.00013
 039,0.00004872,0.00021029,-0.00022371,0.00034555,-0.00008025,0.0008654
 8,0.00013765,-0.00002593,-0.00104661,0.00296842,-0.00018699,-0.0004293
 2,-0.00057254,-0.00019562,-0.00000618,-0.00000088,0.00000048,-0.000000
 32,0.00000336,-0.00000182,0.00000016,0.00000084,0.00000242,0.00000165,
 -0.00000075,0.00000099,0.00000106,0.00000049,-0.00000265,-0.00001376,0
 .00000544,0.00000885,-0.00000297,0.00000409,-0.00000075,0.00001292,0.0
 0001529,0.00001025,0.00000690,0.00001399,0.00001407,-0.00003321,-0.000
 03137,0.00001343,0.00004499,-0.00000015,0.00001276,0.00007535,0.000081
 22,0.00018875,-0.00362545,0.00332558,-0.00172438,-0.04995474,-0.081195
 69,-0.00769753,-0.05647708,-0.03656314,0.00656309,0.08469894,0.1000093
 7,-0.00000706,-0.00002902,-0.00000784,-0.00001593,0.00005554,0.0000143
 2,0.00019506,-0.00012289,-0.00001917,-0.00071289,-0.00019522,0.0000044
 3,0.00153519,-0.00070497,-0.00027614,-0.00037329,0.00037399,0.00009111
 ,-0.00222759,-0.00008323,0.00023875,0.00155402,0.00050129,-0.00030598,
 -0.00073792,-0.00028581,0.00075511,-0.00090057,-0.00011729,0.00071270,
 -0.00097009,0.00111781,0.00004600,0.00015887,0.00175373,-0.00671533,-0
 .00060388,-0.00169141,-0.00034793,-0.00002195,-0.00000197,0.00000014,0
 .00000241,0.00000480,-0.00000059,0.,0.00000630,0.00000676,0.00000622,0
 .00000031,0.00000304,0.00000143,-0.00001078,0.00000031,-0.00005653,0.0
 0002711,0.00003001,-0.00000610,0.00000936,0.00000503,0.00002178,0.0000
 6721,0.00001538,-0.00002356,0.00009025,-0.00000975,-0.00013524,-0.0001
 0511,0.00004771,-0.00023192,-0.00012911,0.00005520,0.00007786,0.000034
 79,-0.00037269,-0.03061509,-0.00768222,-0.00090728,-0.04320605,-0.0098
 7912,-0.08152314,0.01952313,0.01409497,0.01074354,0.01780013,0.0056168
 2,0.07285563,-0.00000222,-0.00000539,0.00000033,0.00000202,0.00000873,
 0.00000239,0.00002668,-0.00000711,0.00001568,-0.00007917,-0.00006205,-
 0.00003453,0.00008988,0.00019585,0.00007021,-0.00007676,-0.00012219,-0
 .00005392,0.00011414,0.00001289,-0.00006402,0.00016662,-0.00044960,0.0
 0002062,0.00076000,0.00028291,-0.00026217,-0.00040377,-0.00002727,0.00
 001790,0.00090427,0.00051055,-0.00009643,-0.00000466,-0.00022263,-0.00
 066185,-0.00004435,0.00037999,-0.00056217,-0.00000648,-0.00000332,-0.0
 0000033,0.00000152,0.00000303,0.00000105,0.00000277,0.00000121,-0.0000
 0248,-0.00000159,-0.00000297,-0.00000519,0.00000050,-0.00000088,0.0000
 0173,0.00000138,0.00000115,-0.00000646,0.00000209,0.00000326,0.0000016
 3,0.00000666,0.00001429,0.00002446,0.00000271,0.00000548,0.00002971,0.
 00009546,0.00001708,0.00003430,0.00003140,0.00000898,0.00001124,-0.000
 01375,-0.00010794,-0.00000853,0.00424465,0.00046524,0.00247939,-0.1182
 1004,0.05900185,0.06300810,0.00740417,0.02245090,0.00354908,-0.0665064
 4,0.02627383,0.03993387,0.17134067,0.00000063,-0.00000743,-0.00000298,
 -0.00000950,0.00001011,0.00000559,0.00005722,-0.00004312,-0.00002682,-
 0.00017382,0.00000979,0.00001817,0.00044272,-0.00043444,-0.00009138,-0
 .00008539,0.00026432,0.00006750,-0.00067348,0.00006661,0.00010890,0.00
 037617,0.00029031,-0.00002833,-0.00054815,-0.00002301,0.00012580,0.000
 03893,0.00019949,-0.00010592,-0.00020974,-0.00009776,0.00007721,0.0014
 9060,0.00112467,0.00063957,-0.00007476,-0.00089156,0.00024138,-0.00000
 299,0.00000161,0.00000071,-0.00000130,0.00000165,-0.00000319,-0.000002
 12,0.00000062,0.00000583,0.00000358,0.00000194,0.00000623,0.00000139,0
 .00000046,-0.00000438,-0.00001881,0.00000673,0.00001768,-0.00000545,0.
 00000195,-0.00000172,0.00001309,0.00000683,-0.00001126,0.00001643,0.00
 001028,-0.00000488,-0.00009550,-0.00004092,-0.00004255,-0.00003568,-0.
 00001937,0.00000314,0.00009512,0.00017453,0.00020745,0.00316097,0.0029
 4915,-0.01121097,0.05833840,-0.14033244,-0.07909343,0.03048403,-0.0793
 1482,-0.02579749,0.01590321,0.01148968,-0.00280751,-0.10834325,0.20438
 660,-0.00000445,-0.00002452,-0.00000871,-0.00001974,0.00004721,0.00000
 825,0.00016470,-0.00011465,-0.00005321,-0.00060354,-0.00011942,0.00004
 548,0.00133846,-0.00078686,-0.00029952,-0.00031925,0.00043504,0.000168
 12,-0.00199007,-0.00003766,0.00038189,0.00118434,0.00071629,-0.0002235
 4,-0.00111528,-0.00028532,0.00001735,-0.00042665,0.00001839,0.00031245
 ,-0.00128993,0.00019334,0.00027529,0.00381105,0.00206336,0.00143820,-0
 .00034014,-0.00150355,0.00042161,-0.00001499,0.00000132,0.00000008,0.0
 0000138,0.00000112,-0.00000197,-0.00000371,0.00000599,0.00001136,0.000
 00833,0.00000462,0.00001121,0.00000155,-0.00001172,-0.00000150,-0.0000
 5560,0.00002713,0.00003986,-0.00000774,0.00000420,0.00000377,0.0000168
 5,0.00004462,-0.00002473,-0.00001307,0.00006786,-0.00004709,-0.0001832
 8,-0.00008398,-0.00014521,-0.00021552,-0.00011991,-0.00003227,0.000140
 81,0.00031768,-0.00019964,0.01266055,-0.01945431,-0.04280449,0.0714923
 2,-0.08897961,-0.16904148,-0.00004349,-0.00800357,0.01662389,0.0236061
 8,-0.00256719,0.00527713,-0.10792542,0.11806663,0.18810120,-0.00000180
 ,-0.00000935,-0.00000269,-0.00000936,0.00001569,0.00000921,0.00005185,
 -0.00004830,-0.00000811,-0.00019795,0.00005892,0.00001715,0.00053851,-
 0.00047102,-0.00004923,-0.00007885,0.00032512,0.00002309,-0.00004475,-
 0.00153583,-0.00018238,-0.00513137,-0.00090396,0.00145697,-0.00310120,
 -0.02887334,-0.00205836,-0.00110572,0.00025418,0.00006075,-0.00318563,
 0.00317966,0.00140558,0.00745854,0.02203503,0.00169098,-0.07471265,-0.
 07013421,-0.00276924,-0.00000410,0.00000170,0.00000080,-0.00000146,0.0
 0000196,-0.00000193,-0.00000080,0.00000010,0.00000191,0.00000181,-0.00
 000079,0.00000114,0.00000119,0.00000093,-0.00000247,-0.00001540,0.0000
 0658,0.00001071,-0.00000609,0.00000426,-0.00000160,0.00002639,0.000024
 06,-0.00001659,-0.00043581,-0.00010613,0.00003907,0.00105962,0.0003243
 5,-0.00061178,0.00011973,-0.00005152,-0.00010495,0.00060629,0.00118271
 ,0.00007884,0.00129227,0.00088266,-0.00023712,-0.00051765,0.00057086,-
 0.00044785,0.00005401,-0.00025549,0.00021639,0.00011686,-0.00006692,0.
 00003566,0.00015167,-0.00014256,0.00014533,0.07707184,-0.00000167,-0.0
 0000668,-0.00000213,-0.00000469,0.00001154,0.00000575,0.00003821,-0.00
 003007,-0.00000522,-0.00015451,-0.00002481,0.00000394,0.00034147,-0.00
 019394,-0.00006094,-0.00008395,0.00010112,0.00000437,-0.00025431,-0.00
 020446,0.00001305,-0.00051067,0.00163795,-0.00059667,-0.00022191,-0.00
 257836,-0.00075788,0.00023392,0.00066034,0.00014959,0.00377164,-0.0008
 8111,-0.00117376,-0.00775446,-0.01612028,-0.00105667,-0.06819919,-0.33
 162664,-0.02120305,-0.00000437,-0.00000014,0.00000028,0.00000012,0.000
 00147,-0.00000028,-0.00000017,0.00000106,0.00000112,0.00000140,-0.0000
 0050,0.00000009,0.00000023,-0.00000171,-0.00000047,-0.00001174,0.00000
 603,0.00000611,-0.00000285,0.00000332,0.00000169,0.00000723,0.00001366
 ,0.00000245,-0.00005371,0.00002945,0.00004206,0.00006603,0.00062489,0.
 00055116,-0.00006128,-0.00007566,0.00007568,-0.00032585,-0.00075820,-0
 .00009743,-0.00085850,0.00095380,0.00052087,0.00070261,-0.00043382,-0.
 00003527,-0.00001324,0.00021677,-0.00012150,-0.00009382,-0.00001200,0.
 00009137,-0.00028261,0.00020756,0.00007746,0.07373067,0.34847943,-0.00
 000013,-0.00000028,0.00000065,0.00000192,-0.00000103,0.00000133,0.0000
 0052,0.00000215,0.00002496,0.00000107,-0.00000900,-0.00003588,-0.00002
 866,0.00002243,0.00008703,-0.00003507,-0.00003321,0.00002735,-0.000037
 19,0.00012870,-0.00002683,0.00153299,-0.00043816,0.00757208,0.00081863
 ,0.00275166,0.00493643,0.00004336,0.00012499,-0.00090313,0.00141877,-0
 .00119365,0.00565086,-0.00082856,-0.00444498,0.00280324,-0.00260299,-0
 .02106538,-0.04105632,-0.00000025,-0.00000032,0.00000010,-0.00000059,0
 .00000151,0.,0.00000090,-0.00000047,-0.00000197,-0.00000115,-0.0000026
 0,-0.00000244,-0.00000016,0.00000201,-0.00000074,0.00000217,-0.0000001
 6,-0.00000479,-0.00000058,0.00000011,0.00000014,-0.00000195,-0.0000026
 0,0.00000085,0.00001836,0.00003819,-0.00023884,-0.00058206,0.00043949,
 -0.00452797,-0.00011283,0.00007487,-0.00071649,-0.00009622,-0.00024123
 ,0.00034103,-0.00006079,-0.00015868,-0.00288933,-0.00115895,0.00094863
 ,0.00131040,0.00007310,-0.00002530,-0.00029219,-0.00014623,-0.00012299
 ,-0.00041649,0.00048184,-0.00035894,-0.00025377,0.00130073,0.02356424,
 0.02861074\\0.00000065,-0.00000386,0.00000128,0.00000020,-0.00000050,0
 .00000195,0.00000181,-0.00000429,0.00000278,-0.00000051,0.00000290,-0.
 00000072,0.00000500,-0.00000611,-0.00000395,-0.00000225,0.00000033,0.0
 0000145,-0.00000630,-0.00000140,0.00000642,0.00000227,0.00000644,0.000
 00090,-0.00000243,-0.00000143,-0.00000185,0.00000149,-0.00000012,-0.00
 000274,-0.00000115,0.00000063,-0.00000455,-0.00000288,0.00000702,0.000
 00142,0.00000070,0.00000050,-0.00000213,0.00000049,-0.00000414,0.00000
 274,-0.00000034,-0.00000360,0.00000183,0.00000067,-0.00000344,0.000002
 39,0.00000075,-0.00000138,-0.00000005,0.00000123,-0.00000387,0.0000009
 9,-0.00000081,-0.00000299,0.00000296,-0.00000039,-0.00000170,0.0000013
 8,-0.00000077,-0.00000028,-0.00000212,0.00000431,0.00000023,-0.0000003
 1,-0.00000105,0.00000032,0.00000134,0.00000031,0.00000209,-0.00000151,
 0.00000073,0.00000326,-0.00000137,-0.00000269,0.00000172,-0.00000297,0
 .00000349,0.00000710,-0.00000158,-0.00000243,0.00000231,-0.00000057,0.
 00000161,0.00000455,-0.00000055,-0.00000013,-0.00000201,-0.00000360,-0
 .00000161,0.00000174,0.00000073\\\@


 "WOULD YOU TELL ME PLEASE, WHICH WAY I OUGHT TO WALK FROM HERE?"
 "THAT DEPENDS A GREAT DEAL ON WHERE YOU WANT TO GO," SAID THE CAT.
 "I DON'T MUCH CARE WHERE -- ", SAID ALICE.
 "THEN IT DOESN'T MATTER WHICH WAY YOU WALK," SAID THE CAT.

                                      -- LEWIS CARROLL
 Job cpu time:       0 days  2 hours 59 minutes 44.6 seconds.
 File lengths (MBytes):  RWF=    596 Int=      0 D2E=      0 Chk=     19 Scr=      1
 Normal termination of Gaussian 09 at Fri Feb 22 19:15:31 2019.
WARNING: pbs_rusage is deprecated and values produced may not be accurate


=============================================================================
                                     Resource usage:
                                       CPU time:              14:47:20
   JobId:    6009738.r-man2            Elapsed time:          03:43:43
   Project:             q95            Requested time:        36:00:00
   Service Units:     14.91 
                                       Max physical memory:      695MB
                                       Max virtual memory:      1604MB
                                       Requested memory:           0MB

                                       Number of cpus:               4

                                       Max jobfs disk use:       0.6GB
                                       Requested jobfs:         16.0GB
=============================================================================

