 Entering Gaussian System, Link 0=/apps/gaussian/g09e01/g09/g09
 AtFile(1): /home/507/hio507/Basis/6-31pGd.gbs
 Initial command:
 /apps/gaussian/g09e01/g09/l1.exe "/jobfs/local/5375059.r-man2/Gau-9999.inp" -scrdir="/jobfs/local/5375059.r-man2/"
 Entering Link 1 = /apps/gaussian/g09e01/g09/l1.exe PID=     10001.
  
 Copyright (c) 1988,1990,1992,1993,1995,1998,2003,2009,2015,
            Gaussian, Inc.  All Rights Reserved.
  
 This is part of the Gaussian(R) 09 program.  It is based on
 the Gaussian(R) 03 system (copyright 2003, Gaussian, Inc.),
 the Gaussian(R) 98 system (copyright 1998, Gaussian, Inc.),
 the Gaussian(R) 94 system (copyright 1995, Gaussian, Inc.),
 the Gaussian 92(TM) system (copyright 1992, Gaussian, Inc.),
 the Gaussian 90(TM) system (copyright 1990, Gaussian, Inc.),
 the Gaussian 88(TM) system (copyright 1988, Gaussian, Inc.),
 the Gaussian 86(TM) system (copyright 1986, Carnegie Mellon
 University), and the Gaussian 82(TM) system (copyright 1983,
 Carnegie Mellon University). Gaussian is a federally registered
 trademark of Gaussian, Inc.
  
 This software contains proprietary and confidential information,
 including trade secrets, belonging to Gaussian, Inc.
  
 This software is provided under written license and may be
 used, copied, transmitted, or stored only in accord with that
 written license.
  
 The following legend is applicable only to US Government
 contracts under FAR:
  
                    RESTRICTED RIGHTS LEGEND
  
 Use, reproduction and disclosure by the US Government is
 subject to restrictions as set forth in subparagraphs (a)
 and (c) of the Commercial Computer Software - Restricted
 Rights clause in FAR 52.227-19.
  
 Gaussian, Inc.
 340 Quinnipiac St., Bldg. 40, Wallingford CT 06492
  
  
 ---------------------------------------------------------------
 Warning -- This program may not be used in any manner that
 competes with the business of Gaussian, Inc. or will provide
 assistance to any competitor of Gaussian, Inc.  The licensee
 of this program is prohibited from giving any competitor of
 Gaussian, Inc. access to this program.  By using this program,
 the user acknowledges that Gaussian, Inc. is engaged in the
 business of creating and licensing software in the field of
 computational chemistry and represents and warrants to the
 licensee that it is not a competitor of Gaussian, Inc. and that
 it will not use this program in any manner prohibited above.
 ---------------------------------------------------------------
  

 Cite this work as:
 Gaussian 09, Revision E.01,
 M. J. Frisch, G. W. Trucks, H. B. Schlegel, G. E. Scuseria, 
 M. A. Robb, J. R. Cheeseman, G. Scalmani, V. Barone, B. Mennucci, 
 G. A. Petersson, H. Nakatsuji, M. Caricato, X. Li, H. P. Hratchian, 
 A. F. Izmaylov, J. Bloino, G. Zheng, J. L. Sonnenberg, M. Hada, 
 M. Ehara, K. Toyota, R. Fukuda, J. Hasegawa, M. Ishida, T. Nakajima, 
 Y. Honda, O. Kitao, H. Nakai, T. Vreven, J. A. Montgomery, Jr., 
 J. E. Peralta, F. Ogliaro, M. Bearpark, J. J. Heyd, E. Brothers, 
 K. N. Kudin, V. N. Staroverov, T. Keith, R. Kobayashi, J. Normand, 
 K. Raghavachari, A. Rendell, J. C. Burant, S. S. Iyengar, J. Tomasi, 
 M. Cossi, N. Rega, J. M. Millam, M. Klene, J. E. Knox, J. B. Cross, 
 V. Bakken, C. Adamo, J. Jaramillo, R. Gomperts, R. E. Stratmann, 
 O. Yazyev, A. J. Austin, R. Cammi, C. Pomelli, J. W. Ochterski, 
 R. L. Martin, K. Morokuma, V. G. Zakrzewski, G. A. Voth, 
 P. Salvador, J. J. Dannenberg, S. Dapprich, A. D. Daniels, 
 O. Farkas, J. B. Foresman, J. V. Ortiz, J. Cioslowski, 
 and D. J. Fox, Gaussian, Inc., Wallingford CT, 2013.
 
 ******************************************
 Gaussian 09:  ES64L-G09RevE.01 30-Nov-2015
                 4-Feb-2019 
 ******************************************
 %chk=2Nitro4Fluro_a1.M062X_6-31pGd_opt_water.chk
 %mem=196608000
 %nproc=4
 Will use up to    4 processors via shared memory.
 ----------------------------------------------------------------------
 # M062X/Gen 6D SCF=Tight INT(grid=ultrafine) OPT IOP(2/17=4) SCRF=(SMD
 ,Solvent=h2o) maxdisk=2147483648
 ----------------------------------------------------------------------
 1/14=-1,18=20,19=15,26=4,38=1/1,3;
 2/9=110,12=2,17=4,18=5,40=1/2;
 3/5=7,8=2,11=2,16=1,25=1,30=1,70=32201,71=1,72=1,74=-55,75=-5/1,2,3;
 4//1;
 5/5=2,32=2,38=5,53=1/2;
 6/7=2,8=2,9=2,10=2,28=1/1;
 7//1,2,3,16;
 1/14=-1,18=20,19=15,26=4/3(2);
 2/9=110,17=4/2;
 99//99;
 2/9=110,17=4/2;
 3/5=7,6=1,8=2,11=2,16=1,25=1,30=1,70=32205,71=1,72=1,74=-55,75=-5,82=7/1,2,3;
 4/5=5,16=3,69=1/1;
 5/5=2,32=2,38=5,53=1/2;
 7//1,2,3,16;
 1/14=-1,18=20,19=15,26=4/3(-5);
 2/9=110,17=4/2;
 6/7=2,8=2,9=2,10=2,19=2,28=1/1;
 99/9=1/99;
 ---------------------------------------
 2Nitro4Fluro_a1.M062X_6-31pGd_opt_water
 ---------------------------------------
 Symbolic Z-matrix:
 Charge = -1 Multiplicity = 1
 C                    -1.20579   2.21756   0.60384 
 C                     0.0204    1.62495  -0.08445 
 C                     1.29726   2.37231   0.31662 
 N                     2.46053   1.80816  -0.34534 
 C                     3.71205   2.30831  -0.14741 
 O                     3.87559   3.24228   0.62729 
 N                     4.77983   1.73242  -0.77698 
 C                     6.56503   2.25829  -0.57152 
 C                     7.70487   1.48261  -0.97763 
 C                     6.77676   3.51945   0.01561 
 C                     8.05748   4.04759   0.15891 
 C                     9.16001   3.32277  -0.27591 
 C                     8.98905   2.05675  -0.83185 
 H                    -2.11323   1.65702   0.29514 
 H                    -1.33169   3.28347   0.31721 
 H                    -0.11763   1.69112  -1.18568 
 H                     0.11259   0.5543    0.20096 
 H                     1.43189   2.30142   1.41863 
 H                     1.19879   3.44331   0.03196 
 H                     2.33637   1.00872  -0.98644 
 H                     5.93118   4.11361   0.34078 
 F                     8.22781   5.27394   0.71177 
 N                     7.61745   0.12864  -1.44989 
 H                     10.15536   3.73416  -0.1661 
 O                     8.58851  -0.41807  -1.88058 
 O                     6.65333  -0.53372  -1.21417 
 H                    -1.10166   2.14614   1.70751 
 H                     9.87708   1.51065  -1.12363 
 
 Add virtual bond connecting atoms C8         and N7         Dist= 3.54D+00.

 GradGradGradGradGradGradGradGradGradGradGradGradGradGradGradGradGradGrad
 Berny optimization.
 Initialization pass.
                           ----------------------------
                           !    Initial Parameters    !
                           ! (Angstroms and Degrees)  !
 --------------------------                            --------------------------
 ! Name  Definition              Value          Derivative Info.                !
 --------------------------------------------------------------------------------
 ! R1    R(1,2)                  1.5259         estimate D2E/DX2                !
 ! R2    R(1,14)                 1.1104         estimate D2E/DX2                !
 ! R3    R(1,15)                 1.1109         estimate D2E/DX2                !
 ! R4    R(1,27)                 1.1109         estimate D2E/DX2                !
 ! R5    R(2,3)                  1.5329         estimate D2E/DX2                !
 ! R6    R(2,16)                 1.1118         estimate D2E/DX2                !
 ! R7    R(2,17)                 1.1119         estimate D2E/DX2                !
 ! R8    R(3,4)                  1.4525         estimate D2E/DX2                !
 ! R9    R(3,18)                 1.1125         estimate D2E/DX2                !
 ! R10   R(3,19)                 1.1126         estimate D2E/DX2                !
 ! R11   R(4,5)                  1.3622         estimate D2E/DX2                !
 ! R12   R(4,20)                 1.0322         estimate D2E/DX2                !
 ! R13   R(5,6)                  1.2244         estimate D2E/DX2                !
 ! R14   R(5,7)                  1.3668         estimate D2E/DX2                !
 ! R15   R(7,8)                  1.8723         estimate D2E/DX2                !
 ! R16   R(8,9)                  1.4373         estimate D2E/DX2                !
 ! R17   R(8,10)                 1.4072         estimate D2E/DX2                !
 ! R18   R(9,13)                 1.4142         estimate D2E/DX2                !
 ! R19   R(9,23)                 1.4366         estimate D2E/DX2                !
 ! R20   R(10,11)                1.3927         estimate D2E/DX2                !
 ! R21   R(10,21)                1.0834         estimate D2E/DX2                !
 ! R22   R(11,12)                1.3892         estimate D2E/DX2                !
 ! R23   R(11,22)                1.356          estimate D2E/DX2                !
 ! R24   R(12,13)                1.3932         estimate D2E/DX2                !
 ! R25   R(12,24)                1.0826         estimate D2E/DX2                !
 ! R26   R(13,28)                1.0826         estimate D2E/DX2                !
 ! R27   R(23,25)                1.1947         estimate D2E/DX2                !
 ! R28   R(23,26)                1.1932         estimate D2E/DX2                !
 ! A1    A(2,1,14)             109.5877         estimate D2E/DX2                !
 ! A2    A(2,1,15)             110.3228         estimate D2E/DX2                !
 ! A3    A(2,1,27)             110.3556         estimate D2E/DX2                !
 ! A4    A(14,1,15)            108.6637         estimate D2E/DX2                !
 ! A5    A(14,1,27)            108.6847         estimate D2E/DX2                !
 ! A6    A(15,1,27)            109.1866         estimate D2E/DX2                !
 ! A7    A(1,2,3)              111.2224         estimate D2E/DX2                !
 ! A8    A(1,2,16)             108.8984         estimate D2E/DX2                !
 ! A9    A(1,2,17)             108.9538         estimate D2E/DX2                !
 ! A10   A(3,2,16)             109.4841         estimate D2E/DX2                !
 ! A11   A(3,2,17)             109.4659         estimate D2E/DX2                !
 ! A12   A(16,2,17)            108.775          estimate D2E/DX2                !
 ! A13   A(2,3,4)              111.0088         estimate D2E/DX2                !
 ! A14   A(2,3,18)             109.2033         estimate D2E/DX2                !
 ! A15   A(2,3,19)             109.188          estimate D2E/DX2                !
 ! A16   A(4,3,18)             109.2562         estimate D2E/DX2                !
 ! A17   A(4,3,19)             109.1583         estimate D2E/DX2                !
 ! A18   A(18,3,19)            108.9966         estimate D2E/DX2                !
 ! A19   A(3,4,5)              121.8019         estimate D2E/DX2                !
 ! A20   A(3,4,20)             119.1784         estimate D2E/DX2                !
 ! A21   A(5,4,20)             119.0192         estimate D2E/DX2                !
 ! A22   A(4,5,6)              119.6505         estimate D2E/DX2                !
 ! A23   A(4,5,7)              119.7432         estimate D2E/DX2                !
 ! A24   A(6,5,7)              120.5627         estimate D2E/DX2                !
 ! A25   A(5,7,8)              125.1681         estimate D2E/DX2                !
 ! A26   A(7,8,9)              124.9981         estimate D2E/DX2                !
 ! A27   A(7,8,10)             116.1659         estimate D2E/DX2                !
 ! A28   A(9,8,10)             118.8326         estimate D2E/DX2                !
 ! A29   A(8,9,13)             118.1576         estimate D2E/DX2                !
 ! A30   A(8,9,23)             123.5903         estimate D2E/DX2                !
 ! A31   A(13,9,23)            118.1486         estimate D2E/DX2                !
 ! A32   A(8,10,11)            121.4104         estimate D2E/DX2                !
 ! A33   A(8,10,21)            119.9547         estimate D2E/DX2                !
 ! A34   A(11,10,21)           118.6112         estimate D2E/DX2                !
 ! A35   A(10,11,12)           119.9826         estimate D2E/DX2                !
 ! A36   A(10,11,22)           120.0286         estimate D2E/DX2                !
 ! A37   A(12,11,22)           119.9863         estimate D2E/DX2                !
 ! A38   A(11,12,13)           120.1063         estimate D2E/DX2                !
 ! A39   A(11,12,24)           119.9768         estimate D2E/DX2                !
 ! A40   A(13,12,24)           119.9072         estimate D2E/DX2                !
 ! A41   A(9,13,12)            121.4306         estimate D2E/DX2                !
 ! A42   A(9,13,28)            120.8168         estimate D2E/DX2                !
 ! A43   A(12,13,28)           117.7283         estimate D2E/DX2                !
 ! A44   A(9,23,25)            120.0214         estimate D2E/DX2                !
 ! A45   A(9,23,26)            120.4898         estimate D2E/DX2                !
 ! A46   A(25,23,26)           118.2896         estimate D2E/DX2                !
 ! D1    D(14,1,2,3)          -179.9822         estimate D2E/DX2                !
 ! D2    D(14,1,2,16)           59.278          estimate D2E/DX2                !
 ! D3    D(14,1,2,17)          -59.2288         estimate D2E/DX2                !
 ! D4    D(15,1,2,3)            60.4133         estimate D2E/DX2                !
 ! D5    D(15,1,2,16)          -60.3265         estimate D2E/DX2                !
 ! D6    D(15,1,2,17)         -178.8333         estimate D2E/DX2                !
 ! D7    D(27,1,2,3)           -60.3316         estimate D2E/DX2                !
 ! D8    D(27,1,2,16)          178.9287         estimate D2E/DX2                !
 ! D9    D(27,1,2,17)           60.4219         estimate D2E/DX2                !
 ! D10   D(1,2,3,4)           -179.7603         estimate D2E/DX2                !
 ! D11   D(1,2,3,18)            59.7188         estimate D2E/DX2                !
 ! D12   D(1,2,3,19)           -59.3709         estimate D2E/DX2                !
 ! D13   D(16,2,3,4)           -59.3657         estimate D2E/DX2                !
 ! D14   D(16,2,3,18)         -179.8866         estimate D2E/DX2                !
 ! D15   D(16,2,3,19)           61.0237         estimate D2E/DX2                !
 ! D16   D(17,2,3,4)            59.788          estimate D2E/DX2                !
 ! D17   D(17,2,3,18)          -60.7329         estimate D2E/DX2                !
 ! D18   D(17,2,3,19)         -179.8226         estimate D2E/DX2                !
 ! D19   D(2,3,4,5)            179.8702         estimate D2E/DX2                !
 ! D20   D(2,3,4,20)             0.1166         estimate D2E/DX2                !
 ! D21   D(18,3,4,5)           -59.6402         estimate D2E/DX2                !
 ! D22   D(18,3,4,20)          120.6062         estimate D2E/DX2                !
 ! D23   D(19,3,4,5)            59.4631         estimate D2E/DX2                !
 ! D24   D(19,3,4,20)         -120.2905         estimate D2E/DX2                !
 ! D25   D(3,4,5,6)              1.4343         estimate D2E/DX2                !
 ! D26   D(3,4,5,7)            179.047          estimate D2E/DX2                !
 ! D27   D(20,4,5,6)          -178.8117         estimate D2E/DX2                !
 ! D28   D(20,4,5,7)            -1.199          estimate D2E/DX2                !
 ! D29   D(4,5,7,8)           -177.8932         estimate D2E/DX2                !
 ! D30   D(6,5,7,8)             -0.3027         estimate D2E/DX2                !
 ! D31   D(5,7,8,9)            164.966          estimate D2E/DX2                !
 ! D32   D(5,7,8,10)           -15.7183         estimate D2E/DX2                !
 ! D33   D(7,8,9,13)           175.9974         estimate D2E/DX2                !
 ! D34   D(7,8,9,23)            -7.7755         estimate D2E/DX2                !
 ! D35   D(10,8,9,13)           -3.3016         estimate D2E/DX2                !
 ! D36   D(10,8,9,23)          172.9256         estimate D2E/DX2                !
 ! D37   D(7,8,10,11)         -176.7296         estimate D2E/DX2                !
 ! D38   D(7,8,10,21)            1.4715         estimate D2E/DX2                !
 ! D39   D(9,8,10,11)            2.6305         estimate D2E/DX2                !
 ! D40   D(9,8,10,21)         -179.1684         estimate D2E/DX2                !
 ! D41   D(8,9,13,12)            1.8159         estimate D2E/DX2                !
 ! D42   D(8,9,13,28)          179.9797         estimate D2E/DX2                !
 ! D43   D(23,9,13,12)        -174.62           estimate D2E/DX2                !
 ! D44   D(23,9,13,28)           3.5439         estimate D2E/DX2                !
 ! D45   D(8,9,23,25)          173.4825         estimate D2E/DX2                !
 ! D46   D(8,9,23,26)          -19.2425         estimate D2E/DX2                !
 ! D47   D(13,9,23,25)         -10.2901         estimate D2E/DX2                !
 ! D48   D(13,9,23,26)         156.985          estimate D2E/DX2                !
 ! D49   D(8,10,11,12)          -0.3407         estimate D2E/DX2                !
 ! D50   D(8,10,11,22)         179.0733         estimate D2E/DX2                !
 ! D51   D(21,10,11,12)       -178.5653         estimate D2E/DX2                !
 ! D52   D(21,10,11,22)          0.8487         estimate D2E/DX2                !
 ! D53   D(10,11,12,13)         -1.2411         estimate D2E/DX2                !
 ! D54   D(10,11,12,24)        179.8899         estimate D2E/DX2                !
 ! D55   D(22,11,12,13)        179.3447         estimate D2E/DX2                !
 ! D56   D(22,11,12,24)          0.4756         estimate D2E/DX2                !
 ! D57   D(11,12,13,9)           0.4655         estimate D2E/DX2                !
 ! D58   D(11,12,13,28)       -177.7531         estimate D2E/DX2                !
 ! D59   D(24,12,13,9)         179.3353         estimate D2E/DX2                !
 ! D60   D(24,12,13,28)          1.1168         estimate D2E/DX2                !
 --------------------------------------------------------------------------------
 Trust Radius=3.00D-01 FncErr=1.00D-07 GrdErr=1.00D-06
 Number of steps in this run=    144 maximum allowed number of steps=    168.
 GradGradGradGradGradGradGradGradGradGradGradGradGradGradGradGradGradGrad

                          Input orientation:                          
 ---------------------------------------------------------------------
 Center     Atomic      Atomic             Coordinates (Angstroms)
 Number     Number       Type             X           Y           Z
 ---------------------------------------------------------------------
      1          6           0       -1.205790    2.217560    0.603840
      2          6           0        0.020400    1.624950   -0.084450
      3          6           0        1.297260    2.372310    0.316620
      4          7           0        2.460530    1.808160   -0.345340
      5          6           0        3.712050    2.308310   -0.147410
      6          8           0        3.875590    3.242280    0.627290
      7          7           0        4.779830    1.732420   -0.776980
      8          6           0        6.565030    2.258290   -0.571520
      9          6           0        7.704870    1.482610   -0.977630
     10          6           0        6.776760    3.519450    0.015610
     11          6           0        8.057480    4.047590    0.158910
     12          6           0        9.160010    3.322770   -0.275910
     13          6           0        8.989050    2.056750   -0.831850
     14          1           0       -2.113230    1.657020    0.295140
     15          1           0       -1.331690    3.283470    0.317210
     16          1           0       -0.117630    1.691120   -1.185680
     17          1           0        0.112590    0.554300    0.200960
     18          1           0        1.431890    2.301420    1.418630
     19          1           0        1.198790    3.443310    0.031960
     20          1           0        2.336370    1.008720   -0.986440
     21          1           0        5.931180    4.113610    0.340780
     22          9           0        8.227810    5.273940    0.711770
     23          7           0        7.617450    0.128640   -1.449890
     24          1           0       10.155360    3.734160   -0.166100
     25          8           0        8.588510   -0.418070   -1.880580
     26          8           0        6.653330   -0.533720   -1.214170
     27          1           0       -1.101660    2.146140    1.707510
     28          1           0        9.877080    1.510650   -1.123630
 ---------------------------------------------------------------------
                    Distance matrix (angstroms):
                    1          2          3          4          5
     1  C    0.000000
     2  C    1.525933   0.000000
     3  C    2.524223   1.532898   0.000000
     4  N    3.809259   2.460866   1.452465   0.000000
     5  C    4.975717   3.754893   2.459803   1.362215   0.000000
     6  O    5.183727   4.240851   2.738823   2.237209   1.224420
     7  N    6.161954   4.810751   3.705903   2.360339   1.366807
     8  C    7.859311   6.593219   5.343332   4.135299   2.884764
     9  C    9.079706   7.737513   6.597281   5.292341   4.160968
    10  C    8.109380   7.017659   5.606376   4.657106   3.299376
    11  C    9.452785   8.397801   6.966492   6.049394   4.690596
    12  C   10.461609   9.297942   7.942122   6.868908   5.543096
    13  C   10.296690   9.010091   7.783456   6.551341   5.327145
    14  H    1.110382   2.167370   3.484759   4.620859   5.878258
    15  H    1.110933   2.177192   2.782371   4.122674   5.158112
    16  H    2.159540   1.111818   2.173209   2.714181   4.015642
    17  H    2.160294   1.111867   2.173012   2.717247   4.019207
    18  H    2.761932   2.170061   1.112464   2.100713   2.766163
    19  H    2.758897   2.169928   1.112551   2.099538   2.763490
    20  H    4.066593   2.560672   2.153391   1.032245   2.070121
    21  H    7.389218   6.427408   4.950346   4.222709   2.902064
    22  F    9.916951   9.017243   7.523837   6.811067   5.470397
    23  N    9.296825   7.862477   6.935374   5.534857   4.658279
    24  H   11.487759  10.352432   8.975165   7.934230   6.599215
    25  O   10.442567   8.989579   8.110255   6.698149   5.849520
    26  O    8.522938   7.066250   6.282978   4.880455   4.226847
    27  H    1.110870   2.177562   2.782183   4.125242   5.161282
    28  H   11.238945   9.911968   8.742430   7.463207   6.292604
                    6          7          8          9         10
     6  O    0.000000
     7  N    2.251511   0.000000
     8  C    3.104588   1.872349   0.000000
     9  C    4.509500   2.942537   1.437303   0.000000
    10  C    2.977879   2.794531   1.407152   2.448802   0.000000
    11  C    4.284403   4.120545   2.441829   2.827575   1.392735
    12  C    5.361655   4.686818   2.820359   2.448680   2.409055
    13  C    5.448123   4.222053   2.446275   1.414216   2.784225
    14  H    6.203978   6.976346   8.742129   9.901790   9.087283
    15  H    5.216667   6.399507   8.012429   9.304790   8.117488
    16  H    4.651748   4.914657   6.734747   7.828044   7.233153
    17  H    4.644046   4.911971   6.718206   7.739092   7.296412
    18  H    2.735527   4.043905   5.505605   6.764820   5.658595
    19  H    2.749562   4.050355   5.528561   6.869694   5.578514
    20  H    3.156282   2.556973   4.428899   5.389382   5.198551
    21  H    2.250945   2.871421   2.162468   3.436036   1.083405
    22  F    4.803811   5.162103   3.675026   4.183506   2.380844
    23  N    5.292537   3.328214   2.532692   1.436630   3.788409
    24  H    6.348773   5.768575   3.902951   3.425341   3.390289
    25  O    6.472958   4.510940   3.601529   2.282263   4.730966
    26  O    5.036367   2.972630   2.866377   2.286323   4.237426
    27  H    5.209742   6.398107   7.999043   9.230667   8.174228
    28  H    6.487075   5.113835   3.439981   2.177292   3.865893
                   11         12         13         14         15
    11  C    0.000000
    12  C    1.389246   0.000000
    13  C    2.410990   1.393235   0.000000
    14  H   10.448767  11.409941  11.166491   0.000000
    15  H    9.421542  10.508525  10.456713   1.804614   0.000000
    16  H    8.613553   9.463856   9.120883   2.485238   2.503637
    17  H    8.679062   9.473523   9.061766   2.485787   3.089956
    18  H    6.966667   7.977372   7.888928   3.774302   3.132878
    19  H    6.886429   7.968082   7.959703   3.772211   2.551518
    20  H    6.578576   7.240286   6.736499   4.675648   4.508731
    21  H    2.135085   3.380988   3.867338   8.411269   7.310196
    22  F    1.355950   2.377304   3.648638  10.963248   9.772497
    23  N    4.259112   3.736333   2.445581  10.003360   9.652083
    24  H    2.145919   1.082599   2.148769  12.451729  11.506043
    25  O    4.937978   4.110409   2.717536  11.116069  10.813975
    26  O    4.984515   4.694283   3.508887   9.161328   8.982016
    27  H    9.481747  10.517618  10.405708   1.804800   1.810902
    28  H    3.375191   2.125229   1.082570  12.074844  11.439206
                   16         17         18         19         20
    16  H    0.000000
    17  H    1.807797   0.000000
    18  H    3.091263   2.505135   0.000000
    19  H    2.507146   3.091079   1.811381   0.000000
    20  H    2.554894   2.561565   2.876373   2.873753   0.000000
    21  H    6.692282   6.822333   4.968843   4.789592   4.931989
    22  F    9.278108   9.401740   7.451178   7.295236   7.468941
    23  N    7.895734   7.696065   7.156153   7.374423   5.373931
    24  H   10.523682  10.540563   8.981261   8.963480   8.320913
    25  O    8.984901   8.781773   8.336523   8.554299   6.474911
    26  O    7.127175   6.779945   6.498699   6.864518   4.589894
    27  H    3.089645   2.505604   2.554690   3.127649   4.513440
    28  H    9.996532   9.900223   8.854922   8.965672   7.558642
                   21         22         23         24         25
    21  H    0.000000
    22  F    2.599713   0.000000
    23  N    4.682947   5.614216   0.000000
    24  H    4.271371   2.618593   4.592263   0.000000
    25  O    5.703680   6.264931   1.194715   4.757675   0.000000
    26  O    4.953488   6.318002   1.193236   5.619383   2.049975
    27  H    7.429652   9.890078   9.490119  11.521837  10.646547
    28  H    4.948740   4.500126   2.668768   2.436863   2.439948
                   26         27         28
    26  O    0.000000
    27  H    8.709635   0.000000
    28  H    3.818404  11.355700   0.000000
 Stoichiometry    C10H11FN3O3(1-)
 Framework group  C1[X(C10H11FN3O3)]
 Deg. of freedom    78
 Full point group                 C1      NOp   1
 Largest Abelian subgroup         C1      NOp   1
 Largest concise Abelian subgroup C1      NOp   1
                         Standard orientation:                         
 ---------------------------------------------------------------------
 Center     Atomic      Atomic             Coordinates (Angstroms)
 Number     Number       Type             X           Y           Z
 ---------------------------------------------------------------------
      1          6           0       -6.578891    0.211622    0.123241
      2          6           0       -5.289949   -0.561148   -0.141193
      3          6           0       -4.057834    0.326098    0.069673
      4          7           0       -2.834045   -0.412325   -0.188640
      5          6           0       -1.607093    0.167281   -0.069162
      6          8           0       -1.521028    1.334669    0.290009
      7          7           0       -0.481953   -0.572501   -0.303562
      8          6           0        1.274716    0.051695   -0.129825
      9          6           0        2.444116   -0.782106   -0.073976
     10          6           0        1.433412    1.448372   -0.065120
     11          6           0        2.695826    2.033358   -0.003382
     12          6           0        3.831952    1.233863    0.002278
     13          6           0        3.710209   -0.153720   -0.027636
     14          1           0       -7.452207   -0.455224   -0.036710
     15          1           0       -6.659783    1.075844   -0.570119
     16          1           0       -5.302725   -0.935302   -1.188085
     17          1           0       -5.242469   -1.431343    0.549282
     18          1           0       -4.048577    0.696100    1.118763
     19          1           0       -4.111635    1.196696   -0.620930
     20          1           0       -2.894462   -1.402425   -0.474262
     21          1           0        0.563431    2.093488   -0.092059
     22          9           0        2.816841    3.383226    0.039205
     23          7           0        2.394994   -2.215071    0.016040
     24          1           0        4.813260    1.688749    0.048469
     25          8           0        3.402035   -2.853549   -0.058519
     26          8           0        1.403095   -2.764725    0.387292
     27          1           0       -6.600132    0.580758    1.170771
     28          1           0        4.619163   -0.740148    0.015534
 ---------------------------------------------------------------------
 Rotational constants (GHZ):      0.7128109      0.2002966      0.1575112
 General basis read from cards:  (6D, 7F)
 There are   345 symmetry adapted cartesian basis functions of A   symmetry.
 There are   345 symmetry adapted basis functions of A   symmetry.
   345 basis functions,   588 primitive gaussians,   345 cartesian basis functions
    63 alpha electrons       63 beta electrons
       nuclear repulsion energy      1128.3198560528 Hartrees.
 NAtoms=   28 NActive=   28 NUniq=   28 SFac= 1.00D+00 NAtFMM=   60 NAOKFM=F Big=F
 Integral buffers will be    131072 words long.
 Raffenetti 2 integral format.
 Two-electron integral symmetry is turned on.
 ------------------------------------------------------------------------------
 Polarizable Continuum Model (PCM)
 =================================
 Model                : PCM (using non-symmetric T matrix).
 Atomic radii         : SMD-Coulomb.
 Polarization charges : Total charges.
 Charge compensation  : None.
 Solution method      : On-the-fly selection.
 Cavity type          : VdW (van der Waals Surface) (Alpha=1.000).
 Cavity algorithm     : GePol (No added spheres)
                        Default sphere list used, NSphG=   28.
                        Lebedev-Laikov grids with approx.  5.0 points / Ang**2.
                        Smoothing algorithm: York/Karplus (Gamma=1.0000).
                        Polarization charges: spherical gaussians, with
                                              point-specific exponents (IZeta= 3).
                        Self-potential: point-specific (ISelfS= 7).
                        Self-field    : sphere-specific E.n sum rule (ISelfD= 2).
 1st derivatives      : Analytical E(r).r(x)/FMM algorithm (CHGder, D1EAlg=3).
                        Cavity 1st derivative terms included.
 Solvent              : Water, Eps=  78.355300 Eps(inf)=   1.777849
 ------------------------------------------------------------------------------
 ------------------------------------------------------------------------------
 Atomic radii for non-electrostatic terms: SMD-CDS.
 ------------------------------------------------------------------------------
 Nuclear repulsion after PCM non-electrostatic terms =     1128.3321596020 Hartrees.
 One-electron integrals computed using PRISM.
 NBasis=   345 RedAO= T EigKep=  1.40D-06  NBF=   345
 NBsUse=   345 1.00D-06 EigRej= -1.00D+00 NBFU=   345
 ExpMin= 4.38D-02 ExpMax= 7.00D+03 ExpMxC= 1.05D+03 IAcc=3 IRadAn=         5 AccDes= 0.00D+00
 Harris functional with IExCor= 1009 and IRadAn=       5 diagonalized for initial guess.
 HarFok:  IExCor= 1009 AccDes= 0.00D+00 IRadAn=         5 IDoV= 1 UseB2=F ITyADJ=14
 ICtDFT=  3500011 ScaDFX=  1.000000  1.000000  1.000000  1.000000
 FoFCou: FMM=F IPFlag=           0 FMFlag=      100000 FMFlg1=           0
         NFxFlg=           0 DoJE=T BraDBF=F KetDBF=T FulRan=T
         wScrn=  0.000000 ICntrl=     500 IOpCl=  0 I1Cent=   200000004 NGrid=           0
         NMat0=    1 NMatS0=      1 NMatT0=    0 NMatD0=    1 NMtDS0=    0 NMtDT0=    0
 Petite list used in FoFCou.
 Requested convergence on RMS density matrix=1.00D-08 within 128 cycles.
 Requested convergence on MAX density matrix=1.00D-06.
 Requested convergence on             energy=1.00D-06.
 No special actions if energy rises.
 Inv3:  Mode=1 IEnd=    15228027.
 Iteration    1 A*A^-1 deviation from unit magnitude is 5.11D-15 for   2247.
 Iteration    1 A*A^-1 deviation from orthogonality  is 4.32D-15 for   1453    234.
 Iteration    1 A^-1*A deviation from unit magnitude is 4.88D-15 for   2247.
 Iteration    1 A^-1*A deviation from orthogonality  is 4.14D-14 for   2122   2061.
 Error on total polarization charges =  0.06435
 SCF Done:  E(RM062X) =  -877.086259983     A.U. after   17 cycles
            NFock= 17  Conv=0.48D-08     -V/T= 2.0088
 SMD-CDS (non-electrostatic) energy       (kcal/mol) =       7.72
 (included in total energy above)

 **********************************************************************

            Population analysis using the SCF density.

 **********************************************************************

 Orbital symmetries:
       Occupied  (A) (A) (A) (A) (A) (A) (A) (A) (A) (A) (A) (A)
                 (A) (A) (A) (A) (A) (A) (A) (A) (A) (A) (A) (A)
                 (A) (A) (A) (A) (A) (A) (A) (A) (A) (A) (A) (A)
                 (A) (A) (A) (A) (A) (A) (A) (A) (A) (A) (A) (A)
                 (A) (A) (A) (A) (A) (A) (A) (A) (A) (A) (A) (A)
                 (A) (A) (A)
       Virtual   (A) (A) (A) (A) (A) (A) (A) (A) (A) (A) (A) (A)
                 (A) (A) (A) (A) (A) (A) (A) (A) (A) (A) (A) (A)
                 (A) (A) (A) (A) (A) (A) (A) (A) (A) (A) (A) (A)
                 (A) (A) (A) (A) (A) (A) (A) (A) (A) (A) (A) (A)
                 (A) (A) (A) (A) (A) (A) (A) (A) (A) (A) (A) (A)
                 (A) (A) (A) (A) (A) (A) (A) (A) (A) (A) (A) (A)
                 (A) (A) (A) (A) (A) (A) (A) (A) (A) (A) (A) (A)
                 (A) (A) (A) (A) (A) (A) (A) (A) (A) (A) (A) (A)
                 (A) (A) (A) (A) (A) (A) (A) (A) (A) (A) (A) (A)
                 (A) (A) (A) (A) (A) (A) (A) (A) (A) (A) (A) (A)
                 (A) (A) (A) (A) (A) (A) (A) (A) (A) (A) (A) (A)
                 (A) (A) (A) (A) (A) (A) (A) (A) (A) (A) (A) (A)
                 (A) (A) (A) (A) (A) (A) (A) (A) (A) (A) (A) (A)
                 (A) (A) (A) (A) (A) (A) (A) (A) (A) (A) (A) (A)
                 (A) (A) (A) (A) (A) (A) (A) (A) (A) (A) (A) (A)
                 (A) (A) (A) (A) (A) (A) (A) (A) (A) (A) (A) (A)
                 (A) (A) (A) (A) (A) (A) (A) (A) (A) (A) (A) (A)
                 (A) (A) (A) (A) (A) (A) (A) (A) (A) (A) (A) (A)
                 (A) (A) (A) (A) (A) (A) (A) (A) (A) (A) (A) (A)
                 (A) (A) (A) (A) (A) (A) (A) (A) (A) (A) (A) (A)
                 (A) (A) (A) (A) (A) (A) (A) (A) (A) (A) (A) (A)
                 (A) (A) (A) (A) (A) (A) (A) (A) (A) (A) (A) (A)
                 (A) (A) (A) (A) (A) (A) (A) (A) (A) (A) (A) (A)
                 (A) (A) (A) (A) (A) (A)
 The electronic state is 1-A.
 Alpha  occ. eigenvalues --  -25.29627 -19.68756 -19.68744 -19.58223 -15.02856
 Alpha  occ. eigenvalues --  -14.76168 -14.72953 -10.66213 -10.64165 -10.63377
 Alpha  occ. eigenvalues --  -10.62837 -10.59030 -10.57233 -10.57191 -10.56892
 Alpha  occ. eigenvalues --  -10.54166 -10.53241  -1.41107  -1.38539  -1.20080
 Alpha  occ. eigenvalues --   -1.15002  -1.00737  -0.99837  -0.92337  -0.90009
 Alpha  occ. eigenvalues --   -0.86729  -0.85058  -0.80231  -0.75366  -0.71715
 Alpha  occ. eigenvalues --   -0.69633  -0.66712  -0.65868  -0.65201  -0.63817
 Alpha  occ. eigenvalues --   -0.62520  -0.61727  -0.58241  -0.57858  -0.54317
 Alpha  occ. eigenvalues --   -0.54068  -0.52421  -0.51846  -0.50346  -0.49713
 Alpha  occ. eigenvalues --   -0.49074  -0.47137  -0.45322  -0.45203  -0.44071
 Alpha  occ. eigenvalues --   -0.43409  -0.41621  -0.41241  -0.39438  -0.38993
 Alpha  occ. eigenvalues --   -0.38736  -0.38402  -0.34189  -0.33232  -0.32672
 Alpha  occ. eigenvalues --   -0.30660  -0.27430  -0.25163
 Alpha virt. eigenvalues --   -0.05907   0.00616   0.02185   0.02792   0.03479
 Alpha virt. eigenvalues --    0.03716   0.04105   0.04458   0.04714   0.04839
 Alpha virt. eigenvalues --    0.05640   0.06684   0.06976   0.07385   0.07896
 Alpha virt. eigenvalues --    0.08201   0.08531   0.08980   0.09755   0.10302
 Alpha virt. eigenvalues --    0.10677   0.10841   0.11321   0.11820   0.13072
 Alpha virt. eigenvalues --    0.13663   0.13788   0.14062   0.14549   0.15357
 Alpha virt. eigenvalues --    0.15521   0.15734   0.16775   0.17070   0.17757
 Alpha virt. eigenvalues --    0.18296   0.19338   0.19852   0.20396   0.20749
 Alpha virt. eigenvalues --    0.20953   0.21319   0.21964   0.22378   0.22573
 Alpha virt. eigenvalues --    0.23030   0.23271   0.23585   0.24324   0.24547
 Alpha virt. eigenvalues --    0.24840   0.25501   0.25626   0.26005   0.26563
 Alpha virt. eigenvalues --    0.26911   0.26959   0.28017   0.28219   0.28939
 Alpha virt. eigenvalues --    0.29547   0.29911   0.30059   0.30822   0.31229
 Alpha virt. eigenvalues --    0.31555   0.32231   0.32268   0.32857   0.32995
 Alpha virt. eigenvalues --    0.33636   0.34108   0.34660   0.34858   0.35613
 Alpha virt. eigenvalues --    0.36079   0.36944   0.37258   0.37499   0.38147
 Alpha virt. eigenvalues --    0.39037   0.39468   0.40438   0.40476   0.40925
 Alpha virt. eigenvalues --    0.41193   0.43212   0.45055   0.45698   0.46743
 Alpha virt. eigenvalues --    0.47704   0.48303   0.48864   0.49874   0.52439
 Alpha virt. eigenvalues --    0.53476   0.54059   0.57398   0.60253   0.65634
 Alpha virt. eigenvalues --    0.67139   0.68780   0.70217   0.70610   0.70954
 Alpha virt. eigenvalues --    0.73327   0.75202   0.76115   0.76181   0.77143
 Alpha virt. eigenvalues --    0.78263   0.79561   0.79690   0.80274   0.81605
 Alpha virt. eigenvalues --    0.83206   0.84358   0.85246   0.87400   0.88115
 Alpha virt. eigenvalues --    0.88915   0.91002   0.91109   0.94469   0.96627
 Alpha virt. eigenvalues --    0.97299   0.98655   0.99298   1.01165   1.02175
 Alpha virt. eigenvalues --    1.03383   1.05515   1.06440   1.06649   1.09129
 Alpha virt. eigenvalues --    1.10857   1.11332   1.11839   1.12133   1.12644
 Alpha virt. eigenvalues --    1.12964   1.14023   1.15423   1.16026   1.16680
 Alpha virt. eigenvalues --    1.18359   1.18973   1.19796   1.22220   1.22836
 Alpha virt. eigenvalues --    1.23886   1.24731   1.26458   1.27113   1.28712
 Alpha virt. eigenvalues --    1.29662   1.31991   1.32731   1.34413   1.35786
 Alpha virt. eigenvalues --    1.36189   1.37729   1.38616   1.38885   1.39864
 Alpha virt. eigenvalues --    1.40868   1.43163   1.43811   1.45138   1.46139
 Alpha virt. eigenvalues --    1.46567   1.48597   1.49525   1.50003   1.51794
 Alpha virt. eigenvalues --    1.53541   1.55676   1.57622   1.59205   1.59543
 Alpha virt. eigenvalues --    1.61722   1.63871   1.69142   1.70381   1.73710
 Alpha virt. eigenvalues --    1.73992   1.77716   1.78598   1.79774   1.80446
 Alpha virt. eigenvalues --    1.82631   1.85777   1.86431   1.86895   1.87508
 Alpha virt. eigenvalues --    1.88347   1.89054   1.89204   1.91093   1.92675
 Alpha virt. eigenvalues --    1.93540   1.94640   1.96764   1.97223   1.98291
 Alpha virt. eigenvalues --    1.99095   2.01391   2.01599   2.02604   2.04157
 Alpha virt. eigenvalues --    2.05317   2.05920   2.06242   2.10020   2.11398
 Alpha virt. eigenvalues --    2.13993   2.14723   2.15117   2.16634   2.19684
 Alpha virt. eigenvalues --    2.21593   2.21777   2.22588   2.25599   2.26944
 Alpha virt. eigenvalues --    2.27893   2.28609   2.30405   2.31208   2.32526
 Alpha virt. eigenvalues --    2.34212   2.37905   2.38312   2.40899   2.43234
 Alpha virt. eigenvalues --    2.45886   2.49709   2.55175   2.56010   2.60363
 Alpha virt. eigenvalues --    2.61274   2.62595   2.66596   2.66720   2.69041
 Alpha virt. eigenvalues --    2.70907   2.73461   2.74089   2.74626   2.77450
 Alpha virt. eigenvalues --    2.78860   2.80204   2.84031   2.87663   2.95464
 Alpha virt. eigenvalues --    3.01728   3.06085   3.08463   3.12372   3.15276
 Alpha virt. eigenvalues --    3.21606   3.24386   3.26447   3.28704   3.43907
 Alpha virt. eigenvalues --    4.11957   4.20639   4.26422   4.28929   4.31852
 Alpha virt. eigenvalues --    4.33048   4.34520   4.41106   4.41950   4.46860
 Alpha virt. eigenvalues --    4.50304   4.52997   4.58926   4.67319   4.75237
 Alpha virt. eigenvalues --    4.77335   6.07419
          Condensed to atoms (all electrons):
               1          2          3          4          5          6
     1  C    5.671985  -0.074056   0.029944  -0.003866  -0.057906  -0.003652
     2  C   -0.074056   6.190843  -0.435126  -0.078987   0.161845   0.026572
     3  C    0.029944  -0.435126   6.735215   0.221607  -0.675450  -0.053954
     4  N   -0.003866  -0.078987   0.221607   7.623625   0.358659  -0.195297
     5  C   -0.057906   0.161845  -0.675450   0.358659   5.433606   0.427075
     6  O   -0.003652   0.026572  -0.053954  -0.195297   0.427075   8.841301
     7  N   -0.001262   0.002965  -0.018808  -0.243674   0.325960  -0.161852
     8  C   -0.001419  -0.008460  -0.075323  -0.060936  -0.071380  -0.088232
     9  C   -0.002606   0.010970  -0.144946   0.047671  -0.661762  -0.027281
    10  C    0.000222   0.003067   0.017790  -0.054588   0.168483   0.003362
    11  C   -0.000461   0.002314  -0.034898  -0.026511  -0.248742   0.067160
    12  C    0.000028  -0.000028   0.002101   0.002053   0.017162  -0.002555
    13  C   -0.000083   0.000754  -0.001756  -0.000785   0.091734   0.008461
    14  H    0.411045  -0.088867   0.029179   0.000445  -0.001029   0.000005
    15  H    0.415560  -0.063809  -0.008067   0.000317   0.000121  -0.000045
    16  H   -0.038422   0.426884  -0.077609   0.005874  -0.001793  -0.000145
    17  H   -0.035468   0.419444  -0.068798   0.005340  -0.005379  -0.000243
    18  H    0.002629  -0.042145   0.423607  -0.059558  -0.021875   0.003570
    19  H    0.002055  -0.045128   0.429735  -0.059337  -0.022611   0.002297
    20  H   -0.003246   0.000779  -0.062712   0.252062   0.023427   0.010339
    21  H    0.000014  -0.000106   0.004974   0.001503   0.021806   0.000522
    22  F    0.000000   0.000001   0.000147   0.000024   0.002646   0.000212
    23  N    0.000103  -0.000810   0.004872  -0.001668  -0.043952   0.000180
    24  H    0.000000  -0.000000   0.000002   0.000001   0.000434   0.000005
    25  O    0.000002  -0.000024   0.000530  -0.000040   0.010392  -0.000018
    26  O   -0.000035   0.000249  -0.004121  -0.009229  -0.017027  -0.001239
    27  H    0.414258  -0.062374  -0.009139   0.000579   0.000840  -0.000051
    28  H    0.000000  -0.000000   0.000006   0.000000   0.000914  -0.000001
               7          8          9         10         11         12
     1  C   -0.001262  -0.001419  -0.002606   0.000222  -0.000461   0.000028
     2  C    0.002965  -0.008460   0.010970   0.003067   0.002314  -0.000028
     3  C   -0.018808  -0.075323  -0.144946   0.017790  -0.034898   0.002101
     4  N   -0.243674  -0.060936   0.047671  -0.054588  -0.026511   0.002053
     5  C    0.325960  -0.071380  -0.661762   0.168483  -0.248742   0.017162
     6  O   -0.161852  -0.088232  -0.027281   0.003362   0.067160  -0.002555
     7  N    7.696312  -0.174727   0.245942  -0.183600   0.074238   0.008694
     8  C   -0.174727  22.467339 -12.470665   0.321127  -1.208260  -1.454140
     9  C    0.245942 -12.470665  27.086266  -1.488181  -1.857000   0.375291
    10  C   -0.183600   0.321127  -1.488181  13.245083  -2.961800   0.016895
    11  C    0.074238  -1.208260  -1.857000  -2.961800  10.804047  -0.264879
    12  C    0.008694  -1.454140   0.375291   0.016895  -0.264879   8.109486
    13  C    0.128367  -2.149934  -3.069901  -3.231417   1.452564  -0.996600
    14  H    0.000011  -0.000010  -0.000001   0.000003   0.000000  -0.000000
    15  H    0.000027   0.000003  -0.000002  -0.000012  -0.000001   0.000000
    16  H    0.000092  -0.000396  -0.000016   0.000210   0.000015   0.000000
    17  H   -0.000210   0.000309   0.000073  -0.000351  -0.000022   0.000001
    18  H    0.000584  -0.002749  -0.001347   0.003022   0.000388  -0.000022
    19  H   -0.001656   0.001386   0.001131  -0.002516  -0.000005   0.000002
    20  H    0.022703   0.004879   0.004793  -0.003287  -0.000083  -0.000040
    21  H   -0.006119  -0.069345   0.005915   0.352215  -0.018188   0.012829
    22  F   -0.000347   0.003996  -0.031885  -0.137115   0.285345  -0.160364
    23  N   -0.017741  -0.076445  -0.353885   0.181455  -0.050867   0.092468
    24  H    0.000071  -0.004918   0.007971   0.060582  -0.080380   0.348396
    25  O   -0.010927   0.568545  -0.491735   0.037558  -0.022618   0.105377
    26  O   -0.046734  -0.205611  -0.196126  -0.007021   0.055330  -0.015313
    27  H    0.000014   0.000023   0.000003  -0.000017  -0.000001   0.000000
    28  H   -0.000020   0.079184   0.034054  -0.015989  -0.006765  -0.072783
              13         14         15         16         17         18
     1  C   -0.000083   0.411045   0.415560  -0.038422  -0.035468   0.002629
     2  C    0.000754  -0.088867  -0.063809   0.426884   0.419444  -0.042145
     3  C   -0.001756   0.029179  -0.008067  -0.077609  -0.068798   0.423607
     4  N   -0.000785   0.000445   0.000317   0.005874   0.005340  -0.059558
     5  C    0.091734  -0.001029   0.000121  -0.001793  -0.005379  -0.021875
     6  O    0.008461   0.000005  -0.000045  -0.000145  -0.000243   0.003570
     7  N    0.128367   0.000011   0.000027   0.000092  -0.000210   0.000584
     8  C   -2.149934  -0.000010   0.000003  -0.000396   0.000309  -0.002749
     9  C   -3.069901  -0.000001  -0.000002  -0.000016   0.000073  -0.001347
    10  C   -3.231417   0.000003  -0.000012   0.000210  -0.000351   0.003022
    11  C    1.452564   0.000000  -0.000001   0.000015  -0.000022   0.000388
    12  C   -0.996600  -0.000000   0.000000   0.000000   0.000001  -0.000022
    13  C   13.111334   0.000000  -0.000000  -0.000001   0.000000  -0.000024
    14  H    0.000000   0.484074  -0.024074  -0.003000  -0.002971  -0.000061
    15  H   -0.000000  -0.024074   0.488815  -0.004580   0.003802  -0.000314
    16  H   -0.000001  -0.003000  -0.004580   0.494332  -0.030943   0.003832
    17  H    0.000000  -0.002971   0.003802  -0.030943   0.494346  -0.005622
    18  H   -0.000024  -0.000061  -0.000314   0.003832  -0.005622   0.515293
    19  H    0.000042  -0.000053   0.002655  -0.005661   0.003881  -0.042383
    20  H    0.000298  -0.000003  -0.000000   0.000570   0.000380   0.002176
    21  H   -0.009346  -0.000000   0.000000   0.000000   0.000000   0.000000
    22  F    0.004381   0.000000  -0.000000   0.000000  -0.000000   0.000000
    23  N   -0.112300   0.000000   0.000000  -0.000000   0.000001   0.000004
    24  H   -0.017734   0.000000  -0.000000   0.000000  -0.000000   0.000000
    25  O   -0.285199   0.000000   0.000000  -0.000000   0.000000  -0.000000
    26  O    0.318657  -0.000000   0.000000  -0.000000   0.000000  -0.000003
    27  H   -0.000000  -0.024035  -0.028475   0.003808  -0.004582   0.002657
    28  H    0.308984  -0.000000   0.000000   0.000000   0.000000  -0.000000
              19         20         21         22         23         24
     1  C    0.002055  -0.003246   0.000014   0.000000   0.000103   0.000000
     2  C   -0.045128   0.000779  -0.000106   0.000001  -0.000810  -0.000000
     3  C    0.429735  -0.062712   0.004974   0.000147   0.004872   0.000002
     4  N   -0.059337   0.252062   0.001503   0.000024  -0.001668   0.000001
     5  C   -0.022611   0.023427   0.021806   0.002646  -0.043952   0.000434
     6  O    0.002297   0.010339   0.000522   0.000212   0.000180   0.000005
     7  N   -0.001656   0.022703  -0.006119  -0.000347  -0.017741   0.000071
     8  C    0.001386   0.004879  -0.069345   0.003996  -0.076445  -0.004918
     9  C    0.001131   0.004793   0.005915  -0.031885  -0.353885   0.007971
    10  C   -0.002516  -0.003287   0.352215  -0.137115   0.181455   0.060582
    11  C   -0.000005  -0.000083  -0.018188   0.285345  -0.050867  -0.080380
    12  C    0.000002  -0.000040   0.012829  -0.160364   0.092468   0.348396
    13  C    0.000042   0.000298  -0.009346   0.004381  -0.112300  -0.017734
    14  H   -0.000053  -0.000003  -0.000000   0.000000   0.000000   0.000000
    15  H    0.002655  -0.000000   0.000000  -0.000000   0.000000  -0.000000
    16  H   -0.005661   0.000570   0.000000   0.000000  -0.000000   0.000000
    17  H    0.003881   0.000380   0.000000  -0.000000   0.000001  -0.000000
    18  H   -0.042383   0.002176   0.000000   0.000000   0.000004   0.000000
    19  H    0.517536   0.002088  -0.000001   0.000000  -0.000004  -0.000000
    20  H    0.002088   0.278881   0.000001   0.000000  -0.000146  -0.000000
    21  H   -0.000001   0.000001   0.410306  -0.003059  -0.000721  -0.000096
    22  F    0.000000   0.000000  -0.003059   9.376413   0.000328  -0.002025
    23  N   -0.000004  -0.000146  -0.000721   0.000328   7.011599  -0.000244
    24  H   -0.000000  -0.000000  -0.000096  -0.002025  -0.000244   0.412008
    25  O   -0.000000  -0.000001   0.000037  -0.000033   0.330091  -0.000009
    26  O    0.000001   0.000036   0.000030   0.000019   0.389881   0.000020
    27  H   -0.000336   0.000000   0.000000   0.000000  -0.000000  -0.000000
    28  H   -0.000000   0.000000   0.000008  -0.000313  -0.031209  -0.003210
              25         26         27         28
     1  C    0.000002  -0.000035   0.414258   0.000000
     2  C   -0.000024   0.000249  -0.062374  -0.000000
     3  C    0.000530  -0.004121  -0.009139   0.000006
     4  N   -0.000040  -0.009229   0.000579   0.000000
     5  C    0.010392  -0.017027   0.000840   0.000914
     6  O   -0.000018  -0.001239  -0.000051  -0.000001
     7  N   -0.010927  -0.046734   0.000014  -0.000020
     8  C    0.568545  -0.205611   0.000023   0.079184
     9  C   -0.491735  -0.196126   0.000003   0.034054
    10  C    0.037558  -0.007021  -0.000017  -0.015989
    11  C   -0.022618   0.055330  -0.000001  -0.006765
    12  C    0.105377  -0.015313   0.000000  -0.072783
    13  C   -0.285199   0.318657  -0.000000   0.308984
    14  H    0.000000  -0.000000  -0.024035  -0.000000
    15  H    0.000000   0.000000  -0.028475   0.000000
    16  H   -0.000000  -0.000000   0.003808   0.000000
    17  H    0.000000   0.000000  -0.004582   0.000000
    18  H   -0.000000  -0.000003   0.002657  -0.000000
    19  H   -0.000000   0.000001  -0.000336  -0.000000
    20  H   -0.000001   0.000036   0.000000   0.000000
    21  H    0.000037   0.000030   0.000000   0.000008
    22  F   -0.000033   0.000019   0.000000  -0.000313
    23  N    0.330091   0.389881  -0.000000  -0.031209
    24  H   -0.000009   0.000020  -0.000000  -0.003210
    25  O    8.005038  -0.154242  -0.000000   0.014850
    26  O   -0.154242   7.960906  -0.000000  -0.001406
    27  H   -0.000000  -0.000000   0.488487   0.000000
    28  H    0.014850  -0.001406   0.000000   0.403099
 Mulliken charges:
               1
     1  C   -0.725363
     2  C   -0.346767
     3  C   -0.228999
     4  N   -0.725284
     5  C    0.783802
     6  O   -0.856497
     7  N   -0.638302
     8  C    0.676158
     9  C   -1.022738
    10  C   -0.325180
    11  C    0.040083
    12  C   -0.124058
    13  C    0.449504
    14  H    0.219341
    15  H    0.218078
    16  H    0.226949
    17  H    0.227012
    18  H    0.218341
    19  H    0.216883
    20  H    0.466106
    21  H    0.296822
    22  F   -0.338370
    23  N   -0.320989
    24  H    0.279125
    25  O   -0.107573
    26  O   -0.067021
    27  H    0.218340
    28  H    0.290596
 Sum of Mulliken charges =  -1.00000
 Mulliken charges with hydrogens summed into heavy atoms:
               1
     1  C   -0.069603
     2  C    0.107195
     3  C    0.206224
     4  N   -0.259178
     5  C    0.783802
     6  O   -0.856497
     7  N   -0.638302
     8  C    0.676158
     9  C   -1.022738
    10  C   -0.028358
    11  C    0.040083
    12  C    0.155068
    13  C    0.740099
    22  F   -0.338370
    23  N   -0.320989
    25  O   -0.107573
    26  O   -0.067021
 Electronic spatial extent (au):  <R**2>=           6509.2196
 Charge=             -1.0000 electrons
 Dipole moment (field-independent basis, Debye):
    X=              0.6741    Y=              2.3635    Z=             -0.7498  Tot=              2.5696
 Quadrupole moment (field-independent basis, Debye-Ang):
   XX=            -87.0600   YY=           -131.9672   ZZ=           -104.3529
   XY=             19.0134   XZ=              2.2307   YZ=             -0.5316
 Traceless Quadrupole moment (field-independent basis, Debye-Ang):
   XX=             20.7334   YY=            -24.1738   ZZ=              3.4405
   XY=             19.0134   XZ=              2.2307   YZ=             -0.5316
 Octapole moment (field-independent basis, Debye-Ang**2):
  XXX=             17.2234  YYY=             35.2277  ZZZ=              5.2559  XYY=            -45.2954
  XXY=             17.0041  XXZ=             -2.3237  XZZ=              4.2597  YZZ=              0.1442
  YYZ=             -8.2182  XYZ=              2.6529
 Hexadecapole moment (field-independent basis, Debye-Ang**3):
 XXXX=          -6323.7831 YYYY=          -1900.7459 ZZZZ=           -151.8763 XXXY=            282.9457
 XXXZ=             50.3124 YYYX=            135.1662 YYYZ=              8.3768 ZZZX=              1.3308
 ZZZY=             -3.3599 XXYY=          -1577.6279 XXZZ=          -1179.7068 YYZZ=           -288.9579
 XXYZ=             -5.8715 YYXZ=              6.4377 ZZXY=             -1.9363
 N-N= 1.128332159602D+03 E-N=-4.324222726980D+03  KE= 8.694470139355D+02
 D1PCM: PCM CHGder 1st derivatives, ID1Alg=3 FixD1E=F DoIter=F DoCFld=F I1PDM=0.
 Calling FoFJK, ICntrl=      2127 FMM=F ISym2X=0 I1Cent= 0 IOpClX= 0 NMat=1 NMatS=1 NMatT=0.
 ***** Axes restored to original set *****
 -------------------------------------------------------------------
 Center     Atomic                   Forces (Hartrees/Bohr)
 Number     Number              X              Y              Z
 -------------------------------------------------------------------
      1        6          -0.004969474    0.001118255    0.001745043
      2        6           0.003554800   -0.003405317   -0.003382788
      3        6          -0.002588826    0.003614813    0.002517722
      4        7          -0.003296852   -0.025348897   -0.022719998
      5        6           0.062018549   -0.016996331   -0.017164045
      6        8          -0.012339598    0.058327392    0.049959124
      7        7           0.057727658   -0.022189544   -0.026438749
      8        6          -0.077996869   -0.010970168    0.008690711
      9        6          -0.016056816    0.039922763    0.009066830
     10        6          -0.001190327    0.001364546   -0.004100586
     11        6          -0.005035861   -0.012181436   -0.006922685
     12        6           0.005686921    0.000260363    0.000689427
     13        6          -0.010426068    0.000885889    0.000667304
     14        1           0.007014582    0.006859729    0.004488872
     15        1          -0.000355786   -0.009341083    0.004232846
     16        1           0.002985613   -0.002960879    0.009029883
     17        1           0.000585591    0.008595488   -0.005021484
     18        1          -0.002309978    0.003708180   -0.009122614
     19        1          -0.000078141   -0.008321252    0.005812788
     20        1           0.001706633    0.013004939    0.010438878
     21        1          -0.001632624   -0.002249362   -0.000229626
     22        9          -0.002077072   -0.012075519   -0.004966878
     23        7           0.003965464    0.006003422    0.028942130
     24        1           0.001861653    0.000250638    0.000044915
     25        8           0.061624841   -0.004433521   -0.034162319
     26        8          -0.064551521   -0.012107737    0.009353276
     27        1          -0.002674536    0.002046459   -0.009668532
     28        1          -0.001151956   -0.003381832   -0.001779445
 -------------------------------------------------------------------
 Cartesian Forces:  Max     0.077996869 RMS     0.020802491

 GradGradGradGradGradGradGradGradGradGradGradGradGradGradGradGradGradGrad
 Berny optimization.
 FormGI is forming the generalized inverse of G from B-inverse, IUseBI=4.
 GSVD:  received Info=                   1 from GESDD.
 Internal  Forces:  Max     0.103850746 RMS     0.017194530
 Search for a local minimum.
 Step number   1 out of a maximum of  144
 All quantities printed in internal units (Hartrees-Bohrs-Radians)
 Mixed Optimization -- RFO/linear search
 Second derivative matrix not updated -- first step.
 ITU=  0
     Eigenvalues ---    0.00230   0.00331   0.00423   0.00998   0.01207
     Eigenvalues ---    0.01474   0.01489   0.01504   0.01605   0.01765
     Eigenvalues ---    0.02030   0.02058   0.02086   0.02131   0.02178
     Eigenvalues ---    0.02188   0.02192   0.02199   0.02212   0.03757
     Eigenvalues ---    0.04437   0.04934   0.05553   0.05673   0.05782
     Eigenvalues ---    0.08032   0.09182   0.11745   0.11974   0.12669
     Eigenvalues ---    0.15992   0.15993   0.15997   0.16000   0.16000
     Eigenvalues ---    0.16000   0.16000   0.21963   0.22000   0.22003
     Eigenvalues ---    0.22357   0.23483   0.24563   0.24943   0.24991
     Eigenvalues ---    0.24998   0.24999   0.25000   0.25000   0.25000
     Eigenvalues ---    0.25000   0.29157   0.29802   0.32331   0.32341
     Eigenvalues ---    0.32403   0.32408   0.32501   0.32508   0.32560
     Eigenvalues ---    0.35586   0.35682   0.35686   0.37924   0.38594
     Eigenvalues ---    0.40051   0.40849   0.42441   0.43258   0.45716
     Eigenvalues ---    0.45847   0.47082   0.51595   0.52502   0.53775
     Eigenvalues ---    0.93451   1.07524   1.08297
 RFO step:  Lambda=-1.05060446D-01 EMin= 2.30000000D-03
 Linear search not attempted -- first point.
 Maximum step size (   0.300) exceeded in Quadratic search.
    -- Step size scaled by   0.518
 Iteration  1 RMS(Cart)=  0.08296927 RMS(Int)=  0.00391742
 Iteration  2 RMS(Cart)=  0.00995524 RMS(Int)=  0.00020502
 Iteration  3 RMS(Cart)=  0.00000924 RMS(Int)=  0.00020499
 Iteration  4 RMS(Cart)=  0.00000000 RMS(Int)=  0.00020499
 Variable       Old X    -DE/DX   Delta X   Delta X   Delta X     New X
                                 (Linear)    (Quad)   (Total)
    R1        2.88360   0.00141   0.00000   0.00181   0.00181   2.88540
    R2        2.09832  -0.01044   0.00000  -0.01257  -0.01257   2.08575
    R3        2.09936  -0.01002   0.00000  -0.01208  -0.01208   2.08728
    R4        2.09924  -0.00999   0.00000  -0.01204  -0.01204   2.08720
    R5        2.89676  -0.00689   0.00000  -0.00900  -0.00900   2.88776
    R6        2.10103  -0.00949   0.00000  -0.01146  -0.01146   2.08957
    R7        2.10113  -0.00951   0.00000  -0.01149  -0.01149   2.08963
    R8        2.74476   0.00007   0.00000   0.00008   0.00008   2.74484
    R9        2.10225  -0.00955   0.00000  -0.01156  -0.01156   2.09070
   R10        2.10242  -0.00950   0.00000  -0.01149  -0.01149   2.09092
   R11        2.57421   0.00593   0.00000   0.00488   0.00488   2.57910
   R12        1.95066  -0.01676   0.00000  -0.01641  -0.01641   1.93425
   R13        2.31382   0.07445   0.00000   0.03713   0.03713   2.35095
   R14        2.58289  -0.01575   0.00000  -0.01315  -0.01315   2.56975
   R15        3.53823  -0.10385   0.00000  -0.24196  -0.24196   3.29627
   R16        2.71611  -0.03141   0.00000  -0.03308  -0.03307   2.68304
   R17        2.65913  -0.01831   0.00000  -0.01761  -0.01761   2.64152
   R18        2.67248  -0.01495   0.00000  -0.01479  -0.01477   2.65771
   R19        2.71484   0.00850   0.00000   0.00871   0.00871   2.72355
   R20        2.63189  -0.00671   0.00000  -0.00568  -0.00570   2.62619
   R21        2.04734  -0.00003   0.00000  -0.00003  -0.00003   2.04731
   R22        2.62529  -0.00210   0.00000  -0.00117  -0.00118   2.62411
   R23        2.56237  -0.01320   0.00000  -0.01065  -0.01065   2.55173
   R24        2.63283  -0.01063   0.00000  -0.00929  -0.00928   2.62355
   R25        2.04582   0.00181   0.00000   0.00203   0.00203   2.04785
   R26        2.04576   0.00124   0.00000   0.00139   0.00139   2.04715
   R27        2.25768   0.06443   0.00000   0.02830   0.02830   2.28598
   R28        2.25489   0.06072   0.00000   0.02650   0.02650   2.28138
    A1        1.91267   0.00321   0.00000   0.00651   0.00650   1.91916
    A2        1.92550   0.00203   0.00000   0.00386   0.00385   1.92935
    A3        1.92607   0.00202   0.00000   0.00383   0.00382   1.92989
    A4        1.89654  -0.00241   0.00000  -0.00446  -0.00447   1.89207
    A5        1.89691  -0.00243   0.00000  -0.00454  -0.00455   1.89235
    A6        1.90567  -0.00258   0.00000  -0.00550  -0.00550   1.90016
    A7        1.94120  -0.00083   0.00000  -0.00068  -0.00068   1.94052
    A8        1.90064   0.00161   0.00000   0.00417   0.00417   1.90480
    A9        1.90160   0.00151   0.00000   0.00388   0.00388   1.90548
   A10        1.91086  -0.00043   0.00000  -0.00151  -0.00151   1.90935
   A11        1.91054  -0.00037   0.00000  -0.00143  -0.00143   1.90911
   A12        1.89848  -0.00149   0.00000  -0.00449  -0.00451   1.89398
   A13        1.93747  -0.00434   0.00000  -0.00625  -0.00624   1.93123
   A14        1.90596   0.00112   0.00000   0.00135   0.00136   1.90731
   A15        1.90569   0.00101   0.00000   0.00129   0.00130   1.90699
   A16        1.90688   0.00217   0.00000   0.00437   0.00437   1.91125
   A17        1.90517   0.00255   0.00000   0.00544   0.00544   1.91061
   A18        1.90235  -0.00251   0.00000  -0.00627  -0.00627   1.89608
   A19        2.12584   0.00014   0.00000   0.00022   0.00022   2.12606
   A20        2.08006  -0.00037   0.00000  -0.00070  -0.00070   2.07936
   A21        2.07728   0.00023   0.00000   0.00048   0.00048   2.07775
   A22        2.08830  -0.00503   0.00000  -0.00726  -0.00728   2.08102
   A23        2.08991  -0.04177   0.00000  -0.06089  -0.06091   2.02901
   A24        2.10422   0.04688   0.00000   0.06855   0.06854   2.17275
   A25        2.18460  -0.06559   0.00000  -0.09576  -0.09576   2.08883
   A26        2.18163  -0.01704   0.00000  -0.02431  -0.02433   2.15730
   A27        2.02748   0.01413   0.00000   0.02121   0.02118   2.04866
   A28        2.07402   0.00289   0.00000   0.00299   0.00299   2.07701
   A29        2.06224   0.01238   0.00000   0.01687   0.01691   2.07915
   A30        2.15706  -0.00547   0.00000  -0.00729  -0.00731   2.14975
   A31        2.06208  -0.00684   0.00000  -0.00930  -0.00933   2.05275
   A32        2.11901  -0.01074   0.00000  -0.01641  -0.01644   2.10257
   A33        2.09360   0.00261   0.00000   0.00282   0.00284   2.09644
   A34        2.07016   0.00815   0.00000   0.01365   0.01366   2.08381
   A35        2.09409   0.01127   0.00000   0.01883   0.01880   2.11289
   A36        2.09489  -0.00621   0.00000  -0.01026  -0.01025   2.08465
   A37        2.09416  -0.00505   0.00000  -0.00856  -0.00854   2.08561
   A38        2.09625  -0.01159   0.00000  -0.01598  -0.01599   2.08026
   A39        2.09399   0.00630   0.00000   0.00899   0.00900   2.10299
   A40        2.09278   0.00530   0.00000   0.00703   0.00703   2.09981
   A41        2.11936  -0.00413   0.00000  -0.00606  -0.00604   2.11333
   A42        2.10865  -0.00180   0.00000  -0.00454  -0.00455   2.10410
   A43        2.05475   0.00594   0.00000   0.01062   0.01061   2.06536
   A44        2.09477  -0.01860   0.00000  -0.02273  -0.02408   2.07069
   A45        2.10294  -0.01346   0.00000  -0.01523  -0.01657   2.08637
   A46        2.06454   0.03592   0.00000   0.05698   0.05563   2.12017
    D1       -3.14128   0.00002   0.00000   0.00007   0.00007  -3.14121
    D2        1.03460   0.00001   0.00000  -0.00036  -0.00036   1.03424
    D3       -1.03374   0.00001   0.00000   0.00041   0.00041  -1.03333
    D4        1.05441  -0.00029   0.00000  -0.00091  -0.00091   1.05350
    D5       -1.05290  -0.00030   0.00000  -0.00134  -0.00134  -1.05424
    D6       -3.12123  -0.00029   0.00000  -0.00057  -0.00057  -3.12180
    D7       -1.05298   0.00029   0.00000   0.00095   0.00095  -1.05203
    D8        3.12289   0.00028   0.00000   0.00052   0.00052   3.12342
    D9        1.05456   0.00029   0.00000   0.00129   0.00129   1.05585
   D10       -3.13741  -0.00019   0.00000  -0.00063  -0.00063  -3.13804
   D11        1.04229  -0.00087   0.00000  -0.00300  -0.00300   1.03929
   D12       -1.03622   0.00090   0.00000   0.00304   0.00304  -1.03318
   D13       -1.03613   0.00101   0.00000   0.00315   0.00315  -1.03298
   D14       -3.13961   0.00033   0.00000   0.00078   0.00078  -3.13884
   D15        1.06506   0.00211   0.00000   0.00682   0.00682   1.07188
   D16        1.04350  -0.00129   0.00000  -0.00410  -0.00409   1.03940
   D17       -1.05999  -0.00198   0.00000  -0.00647  -0.00647  -1.06646
   D18       -3.13850  -0.00020   0.00000  -0.00043  -0.00043  -3.13892
   D19        3.13933  -0.00001   0.00000   0.00001   0.00001   3.13933
   D20        0.00203   0.00010   0.00000   0.00047   0.00047   0.00251
   D21       -1.04092   0.00006   0.00000   0.00059   0.00058  -1.04033
   D22        2.10497   0.00016   0.00000   0.00105   0.00105   2.10602
   D23        1.03783  -0.00019   0.00000  -0.00120  -0.00119   1.03664
   D24       -2.09946  -0.00008   0.00000  -0.00073  -0.00073  -2.10019
   D25        0.02503  -0.00151   0.00000  -0.00558  -0.00550   0.01953
   D26        3.12496   0.00184   0.00000   0.00697   0.00689   3.13185
   D27       -3.12085  -0.00161   0.00000  -0.00604  -0.00597  -3.12682
   D28       -0.02093   0.00173   0.00000   0.00650   0.00643  -0.01450
   D29       -3.10482  -0.00297   0.00000  -0.01327  -0.01341  -3.11823
   D30       -0.00528  -0.00087   0.00000  -0.00249  -0.00235  -0.00763
   D31        2.87920   0.00044   0.00000   0.00159   0.00158   2.88078
   D32       -0.27434  -0.00208   0.00000  -0.00953  -0.00952  -0.28386
   D33        3.07173  -0.00168   0.00000  -0.00730  -0.00716   3.06458
   D34       -0.13571  -0.00066   0.00000  -0.00248  -0.00235  -0.13805
   D35       -0.05762   0.00084   0.00000   0.00398   0.00400  -0.05362
   D36        3.01812   0.00186   0.00000   0.00880   0.00881   3.02693
   D37       -3.08451   0.00111   0.00000   0.00516   0.00533  -3.07918
   D38        0.02568   0.00181   0.00000   0.00770   0.00783   0.03351
   D39        0.04591  -0.00140   0.00000  -0.00545  -0.00544   0.04047
   D40       -3.12708  -0.00070   0.00000  -0.00290  -0.00295  -3.13003
   D41        0.03169  -0.00022   0.00000  -0.00038  -0.00031   0.03138
   D42        3.14124   0.00018   0.00000   0.00084   0.00086  -3.14109
   D43       -3.04769  -0.00118   0.00000  -0.00493  -0.00486  -3.05256
   D44        0.06185  -0.00079   0.00000  -0.00372  -0.00369   0.05816
   D45        3.02784  -0.01351   0.00000  -0.05761  -0.05765   2.97019
   D46       -0.33584   0.01118   0.00000   0.04907   0.04917  -0.28667
   D47       -0.17960  -0.01181   0.00000  -0.05188  -0.05198  -0.23157
   D48        2.73990   0.01287   0.00000   0.05481   0.05484   2.79475
   D49       -0.00595   0.00048   0.00000   0.00199   0.00201  -0.00394
   D50        3.12542   0.00084   0.00000   0.00319   0.00318   3.12859
   D51       -3.11655  -0.00013   0.00000  -0.00035  -0.00029  -3.11684
   D52        0.01481   0.00024   0.00000   0.00086   0.00088   0.01569
   D53       -0.02166   0.00072   0.00000   0.00247   0.00244  -0.01922
   D54        3.13967   0.00011   0.00000  -0.00001  -0.00003   3.13964
   D55        3.13016   0.00036   0.00000   0.00128   0.00128   3.13144
   D56        0.00830  -0.00024   0.00000  -0.00120  -0.00119   0.00711
   D57        0.00812  -0.00067   0.00000  -0.00305  -0.00307   0.00506
   D58       -3.10238  -0.00093   0.00000  -0.00397  -0.00395  -3.10632
   D59        3.12999  -0.00005   0.00000  -0.00055  -0.00058   3.12941
   D60        0.01949  -0.00031   0.00000  -0.00148  -0.00146   0.01803
         Item               Value     Threshold  Converged?
 Maximum Force            0.103851     0.000450     NO 
 RMS     Force            0.017195     0.000300     NO 
 Maximum Displacement     0.263132     0.001800     NO 
 RMS     Displacement     0.092522     0.001200     NO 
 Predicted change in Energy=-4.572165D-02
 GradGradGradGradGradGradGradGradGradGradGradGradGradGradGradGradGradGrad

                          Input orientation:                          
 ---------------------------------------------------------------------
 Center     Atomic      Atomic             Coordinates (Angstroms)
 Number     Number       Type             X           Y           Z
 ---------------------------------------------------------------------
      1          6           0       -1.107956    2.221084    0.583016
      2          6           0        0.127660    1.633454   -0.094728
      3          6           0        1.393506    2.382657    0.319429
      4          7           0        2.560529    1.817619   -0.335220
      5          6           0        3.813739    2.317063   -0.128593
      6          8           0        3.966321    3.269341    0.657276
      7          7           0        4.825923    1.694560   -0.789780
      8          6           0        6.468088    2.237352   -0.563324
      9          6           0        7.605909    1.482640   -0.952711
     10          6           0        6.655020    3.498396    0.010053
     11          6           0        7.933027    4.025538    0.151977
     12          6           0        9.051203    3.315708   -0.265265
     13          6           0        8.884921    2.050187   -0.811385
     14          1           0       -2.009097    1.665621    0.270557
     15          1           0       -1.236871    3.281432    0.301855
     16          1           0        0.004795    1.698395   -1.191712
     17          1           0        0.223503    0.568056    0.185452
     18          1           0        1.516081    2.314052    1.416824
     19          1           0        1.294329    3.448835    0.040675
     20          1           0        2.439989    1.025663   -0.972365
     21          1           0        5.799961    4.085148    0.323629
     22          9           0        8.088567    5.252078    0.694893
     23          7           0        7.526790    0.122773   -1.423534
     24          1           0       10.043443    3.736358   -0.151827
     25          8           0        8.515642   -0.383568   -1.902220
     26          8           0        6.523605   -0.518652   -1.224377
     27          1           0       -1.018252    2.151171    1.681645
     28          1           0        9.768845    1.495199   -1.101586
 ---------------------------------------------------------------------
                    Distance matrix (angstroms):
                    1          2          3          4          5
     1  C    0.000000
     2  C    1.526889   0.000000
     3  C    2.520495   1.528135   0.000000
     4  N    3.803120   2.451653   1.452507   0.000000
     5  C    4.973799   3.749086   2.462226   1.364799   0.000000
     6  O    5.181953   4.239924   2.742212   2.251399   1.244068
     7  N    6.113323   4.749790   3.672235   2.313824   1.359851
     8  C    7.662298   6.386338   5.152840   3.936652   2.690895
     9  C    8.878919   7.528817   6.404867   5.094052   3.969381
    10  C    7.888194   6.789361   5.387404   4.439491   3.080203
    11  C    9.229367   8.167416   6.744808   5.828894   4.468348
    12  C   10.253112   9.082328   7.736458   6.661683   5.333573
    13  C   10.091142   8.796413   7.583573   6.346555   5.123896
    14  H    1.103732   2.167994   3.477676   4.612109   5.872743
    15  H    1.104540   2.176017   2.779745   4.119327   5.159841
    16  H    2.158952   1.105751   2.163395   2.698067   4.002628
    17  H    2.159477   1.105785   2.163246   2.700777   4.005926
    18  H    2.754896   2.162341   1.106349   2.099279   2.769035
    19  H    2.751814   2.162188   1.106469   2.098910   2.767126
    20  H    4.054153   2.546866   2.145995   1.023561   2.065636
    21  H    7.159702   6.193611   4.723911   4.008702   2.697352
    22  F    9.683774   8.780318   7.293723   6.589070   5.250390
    23  N    9.109774   7.667790   6.764774   5.359168   4.503169
    24  H   11.277843  10.136479   8.767896   7.727172   6.389378
    25  O   10.274933   8.814401   7.956919   6.539426   5.705003
    26  O    8.307439   6.842206   6.092524   4.685588   4.072517
    27  H    1.104500   2.176384   2.779531   4.121489   5.162617
    28  H   11.030394   9.694603   8.541263   7.256107   6.089783
                    6          7          8          9         10
     6  O    0.000000
     7  N    2.304956   0.000000
     8  C    2.968789   1.744308   0.000000
     9  C    4.362449   2.792808   1.419805   0.000000
    10  C    2.774972   2.690567   1.397833   2.427833   0.000000
    11  C    4.069634   3.996806   2.419775   2.791715   1.389720
    12  C    5.168101   4.555900   2.814991   2.433433   2.418857
    13  C    5.275977   4.074604   2.436728   1.406398   2.782899
    14  H    6.198958   6.916838   8.537266   9.694236   8.859675
    15  H    5.215331   6.361391   7.823365   9.110672   7.900264
    16  H    4.645462   4.837855   6.516096   7.607930   6.993550
    17  H    4.639853   4.837598   6.507077   7.525410   7.069799
    18  H    2.737364   4.025907   5.333783   6.587256   5.458055
    19  H    2.748081   4.029800   5.347924   6.684966   5.361007
    20  H    3.165361   2.484641   4.226238   5.186129   4.984580
    21  H    2.034477   2.811288   2.155790   3.415193   1.083390
    22  F    4.574448   5.050251   3.646592   4.142007   2.366319
    23  N    5.187254   3.188548   2.516397   1.441240   3.769613
    24  H    6.148509   5.639010   3.898654   3.415001   3.400623
    25  O    6.371114   4.378375   3.585296   2.282962   4.710451
    26  O    4.942592   2.822996   2.834719   2.291365   4.204493
    27  H    5.210144   6.361668   7.816176   9.042285   7.967957
    28  H    6.317473   4.956757   3.425713   2.168090   3.865804
                   11         12         13         14         15
    11  C    0.000000
    12  C    1.388621   0.000000
    13  C    2.395032   1.388322   0.000000
    14  H   10.219055  11.195541  10.954365   0.000000
    15  H    9.201260  10.303750  10.256995   1.791132   0.000000
    16  H    8.371258   9.236423   8.895226   2.488989   2.505690
    17  H    8.449382   9.256404   8.843673   2.489256   3.083610
    18  H    6.760637   7.785294   7.702879   3.763146   3.123736
    19  H    6.664629   7.764046   7.765262   3.761027   2.550140
    20  H    6.358998   7.032243   6.527841   4.663558   4.497936
    21  H    2.140792   3.392553   3.866045   8.175470   7.082615
    22  F    1.350315   2.366031   3.627004  10.724064   9.539482
    23  N    4.228338   3.722937   2.436016   9.807317   9.473956
    24  H    2.151692   1.083676   2.149502  12.236424  11.298596
    25  O    4.898917   4.080575   2.692481  10.940305  10.649023
    26  O    4.952826   4.691584   3.513589   8.933806   8.774680
    27  H    9.272461  10.321847  10.212650   1.791285   1.796971
    28  H    3.368125   2.128073   1.083305  11.858825  11.237707
                   16         17         18         19         20
    16  H    0.000000
    17  H    1.795015   0.000000
    18  H    3.076927   2.497105   0.000000
    19  H    2.499143   3.076770   1.797413   0.000000
    20  H    2.535913   2.542195   2.867364   2.865405   0.000000
    21  H    6.448007   6.594384   4.762718   4.559130   4.725405
    22  F    9.029690   9.168359   7.235382   7.059840   7.249052
    23  N    7.688741   7.491669   6.999854   7.214580   5.185972
    24  H   10.296072  10.323909   8.786325   8.755953   8.113794
    25  O    8.790559   8.603693   8.202870   8.402947   6.305880
    26  O    6.885583   6.546742   6.330517   6.684806   4.373138
    27  H    3.083474   2.507350   2.553332   3.118453   4.502218
    28  H    9.766580   9.676239   8.667238   8.771480   7.345018
                   21         22         23         24         25
    21  H    0.000000
    22  F    2.595627   0.000000
    23  N    4.662074   5.577912   0.000000
    24  H    4.284256   2.614553   4.583533   0.000000
    25  O    5.683200   6.219961   1.209691   4.729888   0.000000
    26  O    4.910698   6.279652   1.207257   5.625365   2.108538
    27  H    7.216128   9.670752   9.315271  11.324113  10.495910
    28  H    4.948850   4.490525   2.648399   2.449538   2.396101
                   26         27         28
    26  O    0.000000
    27  H    8.511905   0.000000
    28  H    3.821290  11.159665   0.000000
 Stoichiometry    C10H11FN3O3(1-)
 Framework group  C1[X(C10H11FN3O3)]
 Deg. of freedom    78
 Full point group                 C1      NOp   1
 Largest Abelian subgroup         C1      NOp   1
 Largest concise Abelian subgroup C1      NOp   1
                         Standard orientation:                         
 ---------------------------------------------------------------------
 Center     Atomic      Atomic             Coordinates (Angstroms)
 Number     Number       Type             X           Y           Z
 ---------------------------------------------------------------------
      1          6           0       -6.457599    0.186542    0.102512
      2          6           0       -5.157104   -0.572846   -0.149348
      3          6           0       -3.941149    0.325915    0.071732
      4          7           0       -2.711258   -0.406236   -0.175451
      5          6           0       -1.486042    0.181086   -0.046716
      6          8           0       -1.417024    1.370356    0.311862
      7          7           0       -0.409685   -0.612279   -0.294148
      8          6           0        1.199958    0.037323   -0.121883
      9          6           0        2.368644   -0.766173   -0.055448
     10          6           0        1.330219    1.428288   -0.075134
     11          6           0        2.587762    2.016615   -0.013649
     12          6           0        3.740529    1.242698    0.007533
     13          6           0        3.627597   -0.140909   -0.010321
     14          1           0       -7.321379   -0.480514   -0.062243
     15          1           0       -6.544230    1.045879   -0.585997
     16          1           0       -5.152097   -0.948190   -1.189434
     17          1           0       -5.103253   -1.438456    0.536641
     18          1           0       -3.946522    0.698041    1.113606
     19          1           0       -3.998468    1.192675   -0.613626
     20          1           0       -2.764238   -1.388604   -0.457984
     21          1           0        0.449715    2.058337   -0.113657
     22          9           0        2.690061    3.362735    0.015467
     23          7           0        2.332808   -2.203661    0.042117
     24          1           0        4.716602    1.711205    0.053750
     25          8           0        3.365931   -2.819545   -0.087096
     26          8           0        1.307943   -2.752837    0.366964
     27          1           0       -6.495777    0.556712    1.142434
     28          1           0        4.534347   -0.731506    0.040171
 ---------------------------------------------------------------------
 Rotational constants (GHZ):      0.7202143      0.2117773      0.1648841
 Basis read from rwf:  (6D, 7F)
 There are   345 symmetry adapted cartesian basis functions of A   symmetry.
 There are   345 symmetry adapted basis functions of A   symmetry.
[...]
 03765,0.00001600,0.00002177,0.00005230,0.00002558,0.00011093,0.0021041
 6,0.00078190,-0.00143199,0.07370922,-0.00004465,-0.00003343,-0.0000725
 5,-0.00003809,0.00006577,0.00018705,0.00037689,-0.00039159,-0.00027887
 ,-0.00247345,0.00047563,-0.00041113,0.00612572,-0.00258819,-0.00310045
 ,-0.00183328,0.00098342,0.00234893,-0.00750937,-0.00388348,0.00079990,
 -0.00022329,0.01505692,0.00186201,-0.00160551,-0.01163176,-0.00196167,
 -0.01538936,-0.04938857,-0.00919130,-0.02570711,-0.29223866,-0.0478337
 7,-0.00333681,-0.04937015,-0.01145346,0.01003361,0.00466965,-0.0023474
 8,-0.00004197,0.00000607,0.00001427,-0.00000303,0.00000734,0.00000438,
 0.00000142,0.00000162,-0.00001951,-0.00000213,-0.00001033,-0.00001161,
 -0.00019998,-0.00000126,0.00011665,-0.00009520,0.00004032,0.00005375,0
 .00008291,0.00005007,0.00026133,0.00210135,0.00142140,0.00102655,0.040
 52269,0.38150662,-0.00000222,-0.00000401,-0.00000298,-0.00000740,0.000
 00359,0.00000804,0.00000885,0.00001625,-0.00005316,-0.00004806,0.00001
 422,0.00009604,0.00025738,0.00014003,0.00041429,-0.00002993,0.00010506
 ,0.00001482,-0.00004777,0.00023659,-0.00201970,0.00226159,-0.00118504,
 0.00983524,-0.00126215,-0.00254673,-0.00090869,-0.00080616,-0.00102581
 ,0.00870807,0.00056192,-0.04718608,-0.05456664,-0.00117588,-0.02034001
 ,0.00310820,0.00510338,0.00043637,0.00473063,-0.00000167,0.00000023,0.
 00000083,-0.00000029,0.00000055,-0.00000004,-0.00000043,-0.00000036,0.
 00000036,0.00000028,0.00000016,-0.00000033,0.00000947,-0.00000117,0.00
 000920,-0.00000437,0.00000208,0.00000333,0.00004415,0.00002091,-0.0000
 0291,-0.00126549,0.00130204,-0.00498675,-0.00201338,0.06798590,0.03908
 095,0.00001237,0.00000992,0.00002244,0.00000668,-0.00001208,-0.0000624
 0,-0.00015107,0.00012229,0.00009911,0.00096851,-0.00004203,0.00036096,
 -0.00233751,-0.00080282,0.00278620,0.00041951,-0.00028116,-0.00185283,
 0.00199686,-0.00825566,-0.00364219,0.01617313,0.02816730,0.00164984,-0
 .12077487,0.00333236,0.00826865,-0.00368886,0.00374071,0.00393105,-0.0
 0379276,0.00074189,0.00070272,-0.00725491,-0.00279811,0.00297112,0.006
 81438,-0.03374896,-0.01064922,0.00001480,-0.00000112,-0.00000385,0.000
 00324,-0.00000621,-0.00000347,-0.00000127,-0.00000236,0.00000999,-0.00
 000242,-0.00000388,0.00000018,0.00007619,0.00000272,-0.00001872,0.0000
 3912,-0.00003895,-0.00003395,0.00003659,0.00009193,-0.00018135,0.00048
 829,0.00147385,0.00013236,0.00031104,0.00056430,-0.00035423,0.72423081
 ,-0.00023788,-0.00017616,-0.00037742,-0.00015846,0.00037343,0.00097900
 ,0.00205448,-0.00252752,-0.00082042,-0.01321928,0.00285472,-0.00170687
 ,0.03429824,-0.02449383,-0.01430413,-0.00522534,0.01227484,0.01159268,
 -0.06449119,-0.00795366,-0.00064507,0.06547939,-0.01300085,-0.01276028
 ,0.01134415,-0.11218606,-0.00705063,-0.00730162,-0.01758164,-0.0046412
 8,0.03999344,-0.01637233,-0.01118438,-0.01746163,0.04805748,0.01298381
 ,-0.05398291,-0.07748460,0.00498997,-0.00022035,0.00003502,0.00006818,
 -0.00000512,0.00002579,0.00001825,0.00001799,0.00001198,-0.00009549,-0
 .00001425,-0.00008290,-0.00006854,-0.00121471,0.00000025,0.00075287,-0
 .00045814,0.00010737,0.00016065,0.00066572,0.00070776,0.00094573,-0.00
 094320,-0.00019146,-0.00026172,-0.00015001,0.01445165,0.00364371,0.076
 98259,0.62666976,-0.00006386,-0.00004202,-0.00010154,-0.00005026,0.000
 08125,0.00026175,0.00050536,-0.00063871,-0.00030173,-0.00331273,0.0005
 5927,-0.00015592,0.00941148,-0.00396881,-0.00379526,-0.00158555,0.0030
 9250,0.00350781,-0.01484813,0.00447881,-0.00244128,0.00534859,-0.01018
 078,-0.00827073,0.01146433,-0.00558538,-0.08171293,0.00163013,-0.00601
 382,0.00563689,0.00828659,-0.00322673,-0.00293637,-0.00015262,0.008722
 60,0.00921337,-0.01520731,-0.00866889,-0.00442247,-0.00005915,0.000008
 03,0.00001831,-0.00000172,0.00000781,0.00000577,-0.00000814,0.00000586
 ,-0.00002863,-0.00000091,-0.00001708,-0.00001424,-0.00028072,0.0000064
 5,0.00017693,-0.00009901,0.00004709,0.00005993,0.00024589,0.00019876,0
 .00027475,-0.00044206,-0.00032172,-0.00021991,-0.00021048,0.00321654,-
 0.00035601,-0.24113563,0.03382597,0.38335115,-0.00000163,-0.00000150,-
 0.00000376,-0.00000148,0.00000272,0.00000856,0.00001636,-0.00001755,-0
 .00001445,-0.00010456,0.00000980,-0.00002412,0.00026446,0.00005883,-0.
 00003418,-0.00022108,-0.00012606,0.00013274,-0.00016708,-0.00015939,-0
 .00002955,0.00023070,0.00109258,0.00000069,0.00187716,0.00055264,0.001
 13773,-0.00192816,0.00314005,0.00163678,-0.01607236,-0.01307312,0.0006
 1415,-0.29796275,-0.11997797,0.02658269,0.00332985,0.00066820,0.000015
 34,-0.00000231,0.00000022,0.00000053,-0.00000014,0.00000052,0.00000026
 ,-0.00000018,0.00000022,-0.00000129,-0.00000034,-0.00000089,-0.0000007
 8,-0.00000882,0.00000081,0.00000415,-0.00000350,0.00000179,0.00000285,
 0.00000046,-0.00000038,0.00001053,-0.00058719,-0.00060544,0.00010898,0
 .00152297,-0.00066230,-0.00101495,0.00031410,-0.00012407,0.00036653,0.
 30932203,0.00000027,0.00000013,0.00000040,-0.00000089,-0.00000016,-0.0
 0000040,-0.00000425,0.00000670,-0.00000356,0.00001585,0.00001361,0.000
 01561,-0.00012193,-0.00008151,-0.00004469,0.00014619,0.00012001,-0.000
 06071,-0.00002275,0.00021497,0.00011704,0.00012488,-0.00101207,-0.0000
 2138,0.00136795,-0.00341796,-0.00294023,0.00252006,-0.00197240,-0.0016
 5062,0.01599908,0.00971804,-0.00136382,-0.12050463,-0.11339365,0.00424
 824,-0.02733687,-0.00852417,0.00303931,0.00000031,-0.00000007,-0.00000
 013,0.00000003,0.00000009,-0.00000001,0.00000019,0.00000008,0.00000034
 ,0.00000026,0.00000017,0.00000020,0.00000376,-0.00000117,0.00000034,-0
 .00000010,-0.00000022,-0.00000054,0.00000210,0.00000216,-0.00000129,0.
 00068596,0.00053196,-0.00016358,-0.00095562,0.00220714,0.00133443,-0.0
 0169651,0.00063855,0.00003541,0.12909633,0.11493705,-0.00000235,-0.000
 00076,-0.00000464,-0.00000051,0.00000305,0.00001000,0.00001055,-0.0000
 4057,0.00001014,-0.00013335,-0.00001781,0.00003459,0.00033283,-0.00014
 137,-0.00035801,-0.00016743,0.00008471,0.00026285,-0.00073464,0.000183
 93,0.00002132,0.00063012,0.00005926,-0.00117244,0.00137329,-0.00144123
 ,0.00656202,0.00107838,-0.00255921,0.00260315,0.00829092,0.00462164,0.
 00095757,0.02610990,0.00445168,-0.03229288,-0.00658027,-0.00273964,0.0
 0273324,-0.00000246,0.00000040,0.00000062,-0.00000019,0.00000036,0.000
 00036,-0.00000006,0.00000031,-0.00000212,0.,-0.00000059,-0.00000047,-0
 .00002013,0.00000388,0.00000137,-0.00000245,0.00000361,0.00000146,0.00
 000448,-0.00000052,0.00000755,0.00052181,0.00012295,0.00056806,-0.0012
 1850,0.00115290,-0.00239255,0.00013948,-0.00136635,0.00175605,-0.02808
 135,-0.00415459,0.02657010,-0.00008030,-0.00006023,-0.00012860,-0.0000
 5170,0.00011922,0.00033505,0.00070882,-0.00084952,-0.00028588,-0.00448
 885,0.00092390,-0.00066152,0.01215870,-0.00727174,-0.00545870,-0.00188
 173,0.00389842,0.00435056,-0.01883215,0.00340680,-0.00017207,0.0159399
 2,-0.00013529,-0.00036606,0.00228915,0.05212893,0.02301123,-0.00273958
 ,-0.00499960,-0.00157811,0.01046952,-0.00486890,-0.00297495,-0.0020312
 7,0.01196509,0.00263551,-0.01643422,-0.01839409,0.00126898,-0.00007579
 ,0.00001166,0.00002319,-0.00000415,0.00001156,0.00000779,0.00000311,0.
 00000529,-0.00003647,-0.00000239,-0.00002295,-0.00002110,-0.00041228,0
 .00000344,0.00024035,-0.00016453,0.00004815,0.00005911,0.00020760,0.00
 019524,0.00037184,-0.00009188,0.00009266,-0.00001413,0.00016466,0.0032
 2369,0.00082938,-0.28928332,0.09119335,0.13295869,-0.00012910,0.000225
 21,-0.00037528,0.38642960,0.00007534,0.00005662,0.00011789,0.00005329,
 -0.00011397,-0.00030857,-0.00062990,0.00075483,0.00030705,0.00412449,-
 0.00085947,0.00050207,-0.01040277,0.00679023,0.00473839,0.00172980,-0.
 00346211,-0.00375574,0.01768057,0.00046351,0.00010267,-0.02268360,-0.0
 0494874,-0.00021000,0.03848061,-0.05205901,-0.03676915,0.00419405,0.00
 210272,0.00058154,-0.00729846,0.00406750,0.00289712,0.00485731,-0.0098
 8453,-0.00257276,0.00791557,0.00368015,-0.00498268,0.00006960,-0.00001
 071,-0.00002150,0.00000213,-0.00000866,-0.00000604,-0.00000465,-0.0000
 0436,0.00002988,0.00000376,0.00002441,0.00002101,0.00036364,0.00000073
 ,-0.00022799,0.00014596,-0.00003905,-0.00005466,-0.00019444,-0.0002036
 7,-0.00031987,-0.00012291,-0.00075008,0.00002581,-0.00016881,-0.004619
 70,-0.00121414,0.10561450,-0.18217377,-0.07747091,-0.00011222,-0.00025
 039,-0.00001427,-0.12179935,0.20169075,0.00004889,0.00003465,0.0000774
 1,0.00004079,-0.00006993,-0.00020392,-0.00040483,0.00042414,0.00026731
 ,0.00248848,-0.00054685,0.00027437,-0.00750908,0.00368435,0.00188808,0
 .00146306,-0.00243725,-0.00279727,0.01230183,-0.00175311,0.00173731,-0
 .01094286,-0.00199295,0.00572229,0.01857695,-0.04032546,0.00064488,0.0
 0166191,0.00233752,-0.00148149,-0.00542724,0.00293318,0.00154784,0.002
 30427,-0.00673819,-0.00247265,0.00804837,0.00764757,-0.00058166,0.0000
 4583,-0.00000646,-0.00001437,0.00000160,-0.00000635,-0.00000445,0.0000
 0107,-0.00000431,0.00002137,0.00000143,0.00001473,0.00001246,0.0002043
 3,0.00000144,-0.00014329,0.00009718,-0.00002979,-0.00004444,-0.0001918
 5,-0.00013879,-0.00023168,-0.00000573,-0.00033229,0.00001393,-0.000072
 72,-0.00274734,-0.00034237,0.13640849,-0.07859223,-0.17089031,-0.00001
 842,-0.00010163,0.00007859,-0.22613845,0.10862590,0.17936459,0.0000429
 3,0.00003069,0.00006822,0.00003125,-0.00006914,-0.00016731,-0.00031624
 ,0.00052642,0.00004231,0.00194792,-0.00077642,-0.00015184,-0.00486590,
 0.00683093,0.00047220,0.00074878,-0.00266815,-0.00032102,0.01011898,0.
 01514270,0.00420855,-0.02060642,-0.00394939,0.00144235,-0.00654667,-0.
 05945220,0.00173902,0.00360464,0.00647998,0.00009035,-0.01245436,0.004
 44263,0.00344220,0.00456466,-0.01278480,-0.00457579,0.01205367,0.01148
 472,0.00024801,0.00003694,-0.00000724,-0.00001170,-0.00000093,-0.00000
 207,-0.00000188,-0.00000030,-0.00000153,0.00001546,0.00000330,0.000020
 17,0.00001415,0.00021153,-0.00000195,-0.00015287,0.00006209,0.00001894
 ,0.00000293,-0.00018964,-0.00025437,-0.00002705,0.00017159,-0.00003828
 ,0.00016271,0.00040216,-0.00316980,-0.00068888,-0.32181465,-0.15970931
 ,0.10590749,0.00004161,-0.00013507,-0.00007545,-0.09477676,-0.02243314
 ,0.06773959,0.42688096,0.00008395,0.00006074,0.00013555,0.00005047,-0.
 00013770,-0.00035194,-0.00076611,0.00091320,0.00030227,0.00501742,-0.0
 0086804,0.00088233,-0.01201027,0.00646676,0.00733816,0.00174395,-0.003
 55032,-0.00483643,0.02419407,-0.00707308,-0.00303515,-0.01799572,-0.00
 054778,0.00342017,-0.05056736,-0.06069363,0.00824226,0.00327279,0.0058
 4772,0.00166410,-0.01241950,0.00597904,0.00365071,0.00212777,-0.013903
 07,-0.00409100,0.01588191,0.00635247,-0.00394112,0.00007829,-0.0000130
 7,-0.00002490,0.00000159,-0.00000836,-0.00000616,-0.00000819,-0.000004
 06,0.00003419,0.00000723,0.00003219,0.00002554,0.00046790,-0.00000165,
 -0.00025358,0.00017245,-0.00005501,-0.00007348,-0.00013583,-0.00019727
 ,-0.00042195,0.00019710,-0.00003249,0.00004699,0.00013498,-0.00506323,
 -0.00127348,-0.17433643,-0.25135680,0.06179150,0.00009839,-0.00099383,
 0.00010996,-0.00590429,0.04489765,0.01124418,0.22051968,0.27351486,-0.
 00000330,-0.00000444,-0.00000620,-0.00000690,0.00001106,0.00001045,0.0
 0002367,-0.00001971,0.00000083,-0.00000521,0.00022217,0.00003773,0.000
 30858,-0.00080997,0.00086474,-0.00022137,0.00027202,-0.00005274,-0.002
 20380,-0.00374090,0.00036998,0.00492513,-0.00014902,-0.00156504,0.0042
 0986,0.00984469,0.01922672,-0.00050913,-0.00062963,-0.00069261,0.00220
 529,-0.00101584,-0.00005150,-0.00115465,0.00224849,-0.00010732,-0.0011
 5253,-0.00332261,0.00558261,-0.00000248,0.00000085,0.00000110,-0.00000
 011,0.00000065,0.00000018,0.00000430,-0.00000189,0.00000024,-0.0000010
 2,-0.00000192,-0.00000320,-0.00001516,-0.00000270,0.00001757,-0.000007
 97,-0.00000641,-0.00000330,0.00005597,0.00002345,-0.00001407,-0.000033
 54,-0.00003979,0.00000241,-0.00008988,0.00055961,0.00017669,0.10024335
 ,0.06506972,-0.12452161,-0.00022239,0.00022303,-0.00093592,0.07387627,
 0.01229919,-0.01291563,-0.17978656,-0.08120438,0.11456958,-0.04803680,
 -0.00525394,0.00753038,-0.00173102,-0.01628936,0.02477094,0.00129227,-
 0.00061567,0.00119371,-0.00010517,0.00024296,-0.00024759,0.00018695,0.
 00009982,-0.00005596,-0.00004227,-0.00004885,-0.00006260,-0.00005380,0
 .00000342,0.00002972,0.00002824,0.00000054,0.00000923,-0.00000342,0.00
 001112,0.00000619,-0.00000661,-0.00000916,-0.00000261,0.00000639,0.000
 00267,-0.00000308,-0.00000391,0.00000170,0.00000256,-0.00000141,-0.000
 00215,-0.00000262,0.00185204,0.01496831,-0.02103097,-0.00097313,0.0005
 8777,-0.00161874,-0.00484836,0.00117000,0.00278848,0.00127462,0.000031
 23,-0.00085733,-0.00014696,0.00020167,-0.00035676,-0.00005578,-0.00006
 639,-0.00011488,0.00007379,-0.00008652,0.00002242,0.00000050,0.0000008
 7,0.00000188,-0.00000085,-0.00000248,0.00000006,-0.00000022,-0.0000141
 8,-0.00000205,-0.00000018,-0.00000006,0.,-0.00000390,0.00000393,0.0000
 0184,0.00000267,0.00000596,-0.00000115,0.05129644,-0.00595061,-0.12462
 553,0.12142169,0.00022690,0.00377840,-0.00691045,-0.00018829,0.0001834
 8,-0.00007555,-0.00008649,-0.00007485,-0.00010804,-0.00001273,-0.00000
 341,0.00005315,-0.00000520,0.00000186,-0.00001381,-0.00001661,-0.00000
 512,-0.00000174,0.00000030,0.00000394,-0.00000091,-0.00000095,-0.00000
 025,0.00000134,-0.00000272,-0.00000046,-0.00000211,0.00000161,-0.00000
 110,0.00000161,-0.00000058,0.00000106,-0.00000043,-0.00000061,0.000000
 14,0.00000051,0.00126701,0.00470519,-0.00818627,-0.00077394,-0.0152309
 0,0.02739668,0.00146442,0.00106115,-0.00080325,-0.00072695,0.00059053,
 -0.00009910,-0.00025897,-0.00012904,0.00011944,-0.00001136,0.00000750,
 0.00004076,0.00001960,0.00002265,-0.00001551,0.00000019,-0.00000011,0.
 00000027,-0.00000020,-0.00000075,-0.00000018,0.00000028,-0.00000133,-0
 .00000089,-0.00000012,-0.00000006,0.,-0.00000077,0.00000046,0.00000030
 ,0.00000010,0.00000069,-0.00000032,0.00505684,0.12971592,0.00838672,0.
 12073145,-0.24237446,0.00065498,0.00831279,-0.01419984,-0.00101348,-0.
 00013005,0.00037731,-0.00001314,-0.00019164,0.00038154,-0.00009792,-0.
 00008091,-0.00001571,0.00009685,0.00002655,0.00003908,0.00010277,0.000
 01557,-0.00001461,-0.00002340,-0.00001376,-0.00000829,0.00000823,-0.00
 001517,-0.00000370,0.00001069,0.00001363,0.00000197,-0.00001243,-0.000
 00209,0.00000173,0.00000617,-0.00000453,-0.00000147,0.00000283,0.00000
 274,-0.00000161,0.00117249,0.00940830,-0.01456004,-0.00048408,-0.00405
 616,0.00795860,0.00332959,-0.00111212,-0.00056592,-0.00051404,-0.00026
 772,0.00045167,0.00037060,0.00015707,0.00045293,0.00008408,-0.00004017
 ,-0.00003247,-0.00007091,0.00005325,-0.00001622,-0.00000048,-0.0000013
 5,-0.00000104,0.00000191,0.00000381,0.00000034,0.00000013,0.00002436,0
 .00000410,0.00000042,0.00000009,-0.00000008,0.00000692,-0.00000722,-0.
 00000429,-0.00000489,-0.00000960,0.00000213,-0.01200124,-0.13281741,0.
 26212863,-0.00000529,-0.00000353,-0.00000884,-0.00000872,0.00000870,0.
 00002262,0.00001591,-0.00003130,-0.00005425,-0.00023342,0.00006815,0.0
 0007446,0.00001346,-0.00020795,-0.00046618,-0.00002491,0.00011057,0.00
 019776,-0.00111201,0.00085415,0.00078751,-0.00159647,-0.00420317,0.000
 22142,-0.01628088,0.01519918,0.00767297,0.00014718,-0.00028874,-0.0003
 6730,0.00068030,-0.00184304,0.00127846,0.00928860,-0.00473740,-0.00150
 798,-0.24153256,0.12993393,0.07014659,-0.00000455,0.00000064,0.0000016
 2,-0.00000006,0.00000064,0.00000032,0.00000034,0.00000058,-0.00000177,
 0.00000008,-0.00000151,-0.00000102,-0.00001133,-0.00000087,0.00000963,
 -0.00000723,0.00000458,0.00000514,0.00000719,0.00000433,0.00002047,0.0
 0001712,0.00009541,0.00000033,0.00043919,-0.00069481,-0.00035318,-0.00
 280376,0.00290234,0.00133524,0.00027116,0.00059025,-0.00109733,0.00311
 281,0.00053572,-0.00072474,0.00064621,0.00008780,-0.00043528,-0.000000
 13,-0.00000017,0.00000064,0.24898175,-0.00000368,-0.00000223,-0.000005
 72,-0.00000580,0.00000558,0.00001402,0.00000677,-0.00002773,-0.0000295
 2,-0.00016243,0.00002532,0.00006175,-0.00004843,-0.00004444,-0.0003825
 7,-0.00003742,0.00004282,0.00013290,-0.00070237,0.00058101,0.00043530,
 -0.00227486,-0.00171188,-0.00051831,-0.00995745,0.01170008,0.00342550,
 -0.00039288,-0.00034504,0.00033589,-0.00247610,-0.00289376,-0.00239964
 ,0.02301269,-0.01129162,-0.00901051,0.13193353,-0.14863758,-0.04995035
 ,-0.00000284,0.00000050,0.00000104,-0.00000005,0.00000027,0.00000022,0
 .00000014,0.00000013,-0.00000099,0.00000010,-0.00000073,-0.00000067,-0
 .00000867,-0.00000003,0.00000576,-0.00000350,0.00000339,0.00000314,0.0
 0000103,0.00000321,0.00001087,0.00011071,0.00006928,0.00001856,0.00126
 648,-0.00172253,-0.00046510,0.00118163,-0.00062569,0.00005790,0.000137
 90,0.00125700,0.00167828,-0.00314587,-0.00514134,-0.00112503,-0.000044
 08,0.00043405,0.00017460,-0.00000006,-0.00000006,0.00000031,-0.1383844
 8,0.15832204,0.00000116,0.00000037,0.00000278,0.00000236,-0.00000221,-
 0.00000597,-0.00000594,0.00001656,0.00000644,0.00008924,0.00000583,-0.
 00002433,-0.00013877,0.00011104,0.00033417,0.00001806,-0.00004629,-0.0
 0011957,0.00022347,-0.00018025,-0.00003954,0.00067938,-0.00009868,0.00
 354382,0.00270604,-0.00062157,0.00399380,-0.00060439,0.00026526,-0.001
 05792,0.00092682,-0.00223207,0.00811860,0.00456881,-0.00348143,0.00491
 463,0.07050899,-0.04974174,-0.06517374,0.00000129,-0.00000024,-0.00000
 034,0.00000002,-0.00000026,-0.00000010,-0.00000010,0.00000019,0.000000
 56,0.00000004,0.00000025,0.00000031,0.00000576,-0.00000049,-0.00000363
 ,0.00000242,-0.00000154,-0.00000172,0.00000237,-0.00000255,-0.00000236
 ,-0.00000519,0.00000673,-0.00009201,0.00013514,-0.00016443,-0.00055488
 ,0.00021176,-0.00118009,-0.00409788,-0.00117769,0.00149275,-0.00501992
 ,-0.00176354,-0.00231300,0.00047742,0.00036971,0.00063527,0.00000619,0
 .00000015,0.00000021,-0.00000024,-0.07675735,0.05753236,0.05479540\\-0
 .00000216,0.00001046,-0.00000705,-0.00000013,0.00000554,-0.00000268,-0
 .00000557,0.00000803,-0.00000156,0.00001322,-0.00000280,0.00000184,-0.
 00001968,0.00002437,0.00001099,-0.00000307,-0.00000964,-0.00001524,0.0
 0002716,-0.00000282,0.00000236,-0.00002798,0.00001027,0.00000617,-0.00
 000355,-0.00007285,-0.00000382,0.00000524,0.00000116,-0.00000398,-0.00
 000228,0.00000275,0.00000584,0.00000371,-0.00002100,-0.00000653,0.0000
 1431,0.00000446,0.00000523,-0.00000128,0.00000912,-0.00000570,0.000001
 34,0.00001188,-0.00000955,0.00000186,0.00000277,-0.00000530,-0.0000022
 4,0.00000443,0.00000070,-0.00000214,0.00001028,-0.00000121,0.00000231,
 0.00000792,-0.00000728,-0.00000348,-0.00000023,0.00000399,0.00000486,-
 0.00000136,-0.00000662,0.00000555,-0.00001188,-0.00001360,0.00000135,0
 .00006887,0.00001927,0.00000340,-0.00001036,0.00000177,0.00002426,-0.0
 0001943,-0.00000125,-0.00003246,-0.00002890,0.00002632,-0.00000271,0.0
 0001458,-0.00000225,0.00000016,-0.00001564,0.00000916\\\@


 SCIENCE AND PEACE WILL TRIUMPH OVER IGNORANCE AND WAR

                          -- PASTEUR
 Job cpu time:       0 days  2 hours 27 minutes 57.7 seconds.
 File lengths (MBytes):  RWF=    444 Int=      0 D2E=      0 Chk=     18 Scr=      1
 Normal termination of Gaussian 09 at Mon Feb  4 21:11:23 2019.
WARNING: pbs_rusage is deprecated and values produced may not be accurate


=============================================================================
                                     Resource usage:
                                       CPU time:              12:18:29
   JobId:    5375059.r-man2            Elapsed time:          03:48:31
   Project:             q95            Requested time:        34:00:00
   Service Units:     15.23 
                                       Max physical memory:      621MB
                                       Max virtual memory:      1142MB
                                       Requested memory:           0MB

                                       Number of cpus:               4

                                       Max jobfs disk use:       0.4GB
                                       Requested jobfs:         16.0GB
=============================================================================

