 Entering Gaussian System, Link 0=/apps/gaussian/g09e01/g09/g09
 AtFile(1): /home/507/hio507/Basis/6-31pGd.gbs
 Initial command:
 /apps/gaussian/g09e01/g09/l1.exe "/jobfs/local/5375057.r-man2/Gau-23115.inp" -scrdir="/jobfs/local/5375057.r-man2/"
 Entering Link 1 = /apps/gaussian/g09e01/g09/l1.exe PID=     23125.
  
 Copyright (c) 1988,1990,1992,1993,1995,1998,2003,2009,2015,
            Gaussian, Inc.  All Rights Reserved.
  
 This is part of the Gaussian(R) 09 program.  It is based on
 the Gaussian(R) 03 system (copyright 2003, Gaussian, Inc.),
 the Gaussian(R) 98 system (copyright 1998, Gaussian, Inc.),
 the Gaussian(R) 94 system (copyright 1995, Gaussian, Inc.),
 the Gaussian 92(TM) system (copyright 1992, Gaussian, Inc.),
 the Gaussian 90(TM) system (copyright 1990, Gaussian, Inc.),
 the Gaussian 88(TM) system (copyright 1988, Gaussian, Inc.),
 the Gaussian 86(TM) system (copyright 1986, Carnegie Mellon
 University), and the Gaussian 82(TM) system (copyright 1983,
 Carnegie Mellon University). Gaussian is a federally registered
 trademark of Gaussian, Inc.
  
 This software contains proprietary and confidential information,
 including trade secrets, belonging to Gaussian, Inc.
  
 This software is provided under written license and may be
 used, copied, transmitted, or stored only in accord with that
 written license.
  
 The following legend is applicable only to US Government
 contracts under FAR:
  
                    RESTRICTED RIGHTS LEGEND
  
 Use, reproduction and disclosure by the US Government is
 subject to restrictions as set forth in subparagraphs (a)
 and (c) of the Commercial Computer Software - Restricted
 Rights clause in FAR 52.227-19.
  
 Gaussian, Inc.
 340 Quinnipiac St., Bldg. 40, Wallingford CT 06492
  
  
 ---------------------------------------------------------------
 Warning -- This program may not be used in any manner that
 competes with the business of Gaussian, Inc. or will provide
 assistance to any competitor of Gaussian, Inc.  The licensee
 of this program is prohibited from giving any competitor of
 Gaussian, Inc. access to this program.  By using this program,
 the user acknowledges that Gaussian, Inc. is engaged in the
 business of creating and licensing software in the field of
 computational chemistry and represents and warrants to the
 licensee that it is not a competitor of Gaussian, Inc. and that
 it will not use this program in any manner prohibited above.
 ---------------------------------------------------------------
  

 Cite this work as:
 Gaussian 09, Revision E.01,
 M. J. Frisch, G. W. Trucks, H. B. Schlegel, G. E. Scuseria, 
 M. A. Robb, J. R. Cheeseman, G. Scalmani, V. Barone, B. Mennucci, 
 G. A. Petersson, H. Nakatsuji, M. Caricato, X. Li, H. P. Hratchian, 
 A. F. Izmaylov, J. Bloino, G. Zheng, J. L. Sonnenberg, M. Hada, 
 M. Ehara, K. Toyota, R. Fukuda, J. Hasegawa, M. Ishida, T. Nakajima, 
 Y. Honda, O. Kitao, H. Nakai, T. Vreven, J. A. Montgomery, Jr., 
 J. E. Peralta, F. Ogliaro, M. Bearpark, J. J. Heyd, E. Brothers, 
 K. N. Kudin, V. N. Staroverov, T. Keith, R. Kobayashi, J. Normand, 
 K. Raghavachari, A. Rendell, J. C. Burant, S. S. Iyengar, J. Tomasi, 
 M. Cossi, N. Rega, J. M. Millam, M. Klene, J. E. Knox, J. B. Cross, 
 V. Bakken, C. Adamo, J. Jaramillo, R. Gomperts, R. E. Stratmann, 
 O. Yazyev, A. J. Austin, R. Cammi, C. Pomelli, J. W. Ochterski, 
 R. L. Martin, K. Morokuma, V. G. Zakrzewski, G. A. Voth, 
 P. Salvador, J. J. Dannenberg, S. Dapprich, A. D. Daniels, 
 O. Farkas, J. B. Foresman, J. V. Ortiz, J. Cioslowski, 
 and D. J. Fox, Gaussian, Inc., Wallingford CT, 2013.
 
 ******************************************
 Gaussian 09:  ES64L-G09RevE.01 30-Nov-2015
                 4-Feb-2019 
 ******************************************
 %chk=2Nitro4Fluro_a1.M062X_6-31pGd_opt.chk
 %mem=196608000
 %nproc=4
 Will use up to    4 processors via shared memory.
 ----------------------------------------------------------------------
 # M062X/Gen 6D SCF=Tight INT(grid=ultrafine) OPT IOP(2/17=4) maxdisk=2
 147483648
 ----------------------------------------------------------------------
 1/14=-1,18=20,19=15,26=4,38=1/1,3;
 2/9=110,12=2,17=4,18=5,40=1/2;
 3/5=7,8=2,11=2,16=1,25=1,30=1,71=1,74=-55,75=-5/1,2,3;
 4//1;
 5/5=2,32=2,38=5/2;
 6/7=2,8=2,9=2,10=2,28=1/1;
 7//1,2,3,16;
 1/14=-1,18=20,19=15,26=4/3(2);
 2/9=110,17=4/2;
 99//99;
 2/9=110,17=4/2;
 3/5=7,6=1,8=2,11=2,16=1,25=1,30=1,71=1,74=-55,75=-5,82=7/1,2,3;
 4/5=5,16=3,69=1/1;
 5/5=2,32=2,38=5/2;
 7//1,2,3,16;
 1/14=-1,18=20,19=15,26=4/3(-5);
 2/9=110,17=4/2;
 6/7=2,8=2,9=2,10=2,19=2,28=1/1;
 99/9=1/99;
 ---------------------------------
 2Nitro4Fluro_a1.M062X_6-31pGd_opt
 ---------------------------------
 Symbolic Z-matrix:
 Charge = -1 Multiplicity = 1
 C                    -1.20579   2.21756   0.60384 
 C                     0.0204    1.62495  -0.08445 
 C                     1.29726   2.37231   0.31662 
 N                     2.46053   1.80816  -0.34534 
 C                     3.71205   2.30831  -0.14741 
 O                     3.87559   3.24228   0.62729 
 N                     4.77983   1.73242  -0.77698 
 C                     6.56503   2.25829  -0.57152 
 C                     7.70487   1.48261  -0.97763 
 C                     6.77676   3.51945   0.01561 
 C                     8.05748   4.04759   0.15891 
 C                     9.16001   3.32277  -0.27591 
 C                     8.98905   2.05675  -0.83185 
 H                    -2.11323   1.65702   0.29514 
 H                    -1.33169   3.28347   0.31721 
 H                    -0.11763   1.69112  -1.18568 
 H                     0.11259   0.5543    0.20096 
 H                     1.43189   2.30142   1.41863 
 H                     1.19879   3.44331   0.03196 
 H                     2.33637   1.00872  -0.98644 
 H                     5.93118   4.11361   0.34078 
 F                     8.22781   5.27394   0.71177 
 N                     7.61745   0.12864  -1.44989 
 H                     10.15536   3.73416  -0.1661 
 O                     8.58851  -0.41807  -1.88058 
 O                     6.65333  -0.53372  -1.21417 
 H                    -1.10166   2.14614   1.70751 
 H                     9.87708   1.51065  -1.12363 
 
 Add virtual bond connecting atoms C8         and N7         Dist= 3.54D+00.

 GradGradGradGradGradGradGradGradGradGradGradGradGradGradGradGradGradGrad
 Berny optimization.
 Initialization pass.
                           ----------------------------
                           !    Initial Parameters    !
                           ! (Angstroms and Degrees)  !
 --------------------------                            --------------------------
 ! Name  Definition              Value          Derivative Info.                !
 --------------------------------------------------------------------------------
 ! R1    R(1,2)                  1.5259         estimate D2E/DX2                !
 ! R2    R(1,14)                 1.1104         estimate D2E/DX2                !
 ! R3    R(1,15)                 1.1109         estimate D2E/DX2                !
 ! R4    R(1,27)                 1.1109         estimate D2E/DX2                !
 ! R5    R(2,3)                  1.5329         estimate D2E/DX2                !
 ! R6    R(2,16)                 1.1118         estimate D2E/DX2                !
 ! R7    R(2,17)                 1.1119         estimate D2E/DX2                !
 ! R8    R(3,4)                  1.4525         estimate D2E/DX2                !
 ! R9    R(3,18)                 1.1125         estimate D2E/DX2                !
 ! R10   R(3,19)                 1.1126         estimate D2E/DX2                !
 ! R11   R(4,5)                  1.3622         estimate D2E/DX2                !
 ! R12   R(4,20)                 1.0322         estimate D2E/DX2                !
 ! R13   R(5,6)                  1.2244         estimate D2E/DX2                !
 ! R14   R(5,7)                  1.3668         estimate D2E/DX2                !
 ! R15   R(7,8)                  1.8723         estimate D2E/DX2                !
 ! R16   R(8,9)                  1.4373         estimate D2E/DX2                !
 ! R17   R(8,10)                 1.4072         estimate D2E/DX2                !
 ! R18   R(9,13)                 1.4142         estimate D2E/DX2                !
 ! R19   R(9,23)                 1.4366         estimate D2E/DX2                !
 ! R20   R(10,11)                1.3927         estimate D2E/DX2                !
 ! R21   R(10,21)                1.0834         estimate D2E/DX2                !
 ! R22   R(11,12)                1.3892         estimate D2E/DX2                !
 ! R23   R(11,22)                1.356          estimate D2E/DX2                !
 ! R24   R(12,13)                1.3932         estimate D2E/DX2                !
 ! R25   R(12,24)                1.0826         estimate D2E/DX2                !
 ! R26   R(13,28)                1.0826         estimate D2E/DX2                !
 ! R27   R(23,25)                1.1947         estimate D2E/DX2                !
 ! R28   R(23,26)                1.1932         estimate D2E/DX2                !
 ! A1    A(2,1,14)             109.5877         estimate D2E/DX2                !
 ! A2    A(2,1,15)             110.3228         estimate D2E/DX2                !
 ! A3    A(2,1,27)             110.3556         estimate D2E/DX2                !
 ! A4    A(14,1,15)            108.6637         estimate D2E/DX2                !
 ! A5    A(14,1,27)            108.6847         estimate D2E/DX2                !
 ! A6    A(15,1,27)            109.1866         estimate D2E/DX2                !
 ! A7    A(1,2,3)              111.2224         estimate D2E/DX2                !
 ! A8    A(1,2,16)             108.8984         estimate D2E/DX2                !
 ! A9    A(1,2,17)             108.9538         estimate D2E/DX2                !
 ! A10   A(3,2,16)             109.4841         estimate D2E/DX2                !
 ! A11   A(3,2,17)             109.4659         estimate D2E/DX2                !
 ! A12   A(16,2,17)            108.775          estimate D2E/DX2                !
 ! A13   A(2,3,4)              111.0088         estimate D2E/DX2                !
 ! A14   A(2,3,18)             109.2033         estimate D2E/DX2                !
 ! A15   A(2,3,19)             109.188          estimate D2E/DX2                !
 ! A16   A(4,3,18)             109.2562         estimate D2E/DX2                !
 ! A17   A(4,3,19)             109.1583         estimate D2E/DX2                !
 ! A18   A(18,3,19)            108.9966         estimate D2E/DX2                !
 ! A19   A(3,4,5)              121.8019         estimate D2E/DX2                !
 ! A20   A(3,4,20)             119.1784         estimate D2E/DX2                !
 ! A21   A(5,4,20)             119.0192         estimate D2E/DX2                !
 ! A22   A(4,5,6)              119.6505         estimate D2E/DX2                !
 ! A23   A(4,5,7)              119.7432         estimate D2E/DX2                !
 ! A24   A(6,5,7)              120.5627         estimate D2E/DX2                !
 ! A25   A(5,7,8)              125.1681         estimate D2E/DX2                !
 ! A26   A(7,8,9)              124.9981         estimate D2E/DX2                !
 ! A27   A(7,8,10)             116.1659         estimate D2E/DX2                !
 ! A28   A(9,8,10)             118.8326         estimate D2E/DX2                !
 ! A29   A(8,9,13)             118.1576         estimate D2E/DX2                !
 ! A30   A(8,9,23)             123.5903         estimate D2E/DX2                !
 ! A31   A(13,9,23)            118.1486         estimate D2E/DX2                !
 ! A32   A(8,10,11)            121.4104         estimate D2E/DX2                !
 ! A33   A(8,10,21)            119.9547         estimate D2E/DX2                !
 ! A34   A(11,10,21)           118.6112         estimate D2E/DX2                !
 ! A35   A(10,11,12)           119.9826         estimate D2E/DX2                !
 ! A36   A(10,11,22)           120.0286         estimate D2E/DX2                !
 ! A37   A(12,11,22)           119.9863         estimate D2E/DX2                !
 ! A38   A(11,12,13)           120.1063         estimate D2E/DX2                !
 ! A39   A(11,12,24)           119.9768         estimate D2E/DX2                !
 ! A40   A(13,12,24)           119.9072         estimate D2E/DX2                !
 ! A41   A(9,13,12)            121.4306         estimate D2E/DX2                !
 ! A42   A(9,13,28)            120.8168         estimate D2E/DX2                !
 ! A43   A(12,13,28)           117.7283         estimate D2E/DX2                !
 ! A44   A(9,23,25)            120.0214         estimate D2E/DX2                !
 ! A45   A(9,23,26)            120.4898         estimate D2E/DX2                !
 ! A46   A(25,23,26)           118.2896         estimate D2E/DX2                !
 ! D1    D(14,1,2,3)          -179.9822         estimate D2E/DX2                !
 ! D2    D(14,1,2,16)           59.278          estimate D2E/DX2                !
 ! D3    D(14,1,2,17)          -59.2288         estimate D2E/DX2                !
 ! D4    D(15,1,2,3)            60.4133         estimate D2E/DX2                !
 ! D5    D(15,1,2,16)          -60.3265         estimate D2E/DX2                !
 ! D6    D(15,1,2,17)         -178.8333         estimate D2E/DX2                !
 ! D7    D(27,1,2,3)           -60.3316         estimate D2E/DX2                !
 ! D8    D(27,1,2,16)          178.9287         estimate D2E/DX2                !
 ! D9    D(27,1,2,17)           60.4219         estimate D2E/DX2                !
 ! D10   D(1,2,3,4)           -179.7603         estimate D2E/DX2                !
 ! D11   D(1,2,3,18)            59.7188         estimate D2E/DX2                !
 ! D12   D(1,2,3,19)           -59.3709         estimate D2E/DX2                !
 ! D13   D(16,2,3,4)           -59.3657         estimate D2E/DX2                !
 ! D14   D(16,2,3,18)         -179.8866         estimate D2E/DX2                !
 ! D15   D(16,2,3,19)           61.0237         estimate D2E/DX2                !
 ! D16   D(17,2,3,4)            59.788          estimate D2E/DX2                !
 ! D17   D(17,2,3,18)          -60.7329         estimate D2E/DX2                !
 ! D18   D(17,2,3,19)         -179.8226         estimate D2E/DX2                !
 ! D19   D(2,3,4,5)            179.8702         estimate D2E/DX2                !
 ! D20   D(2,3,4,20)             0.1166         estimate D2E/DX2                !
 ! D21   D(18,3,4,5)           -59.6402         estimate D2E/DX2                !
 ! D22   D(18,3,4,20)          120.6062         estimate D2E/DX2                !
 ! D23   D(19,3,4,5)            59.4631         estimate D2E/DX2                !
 ! D24   D(19,3,4,20)         -120.2905         estimate D2E/DX2                !
 ! D25   D(3,4,5,6)              1.4343         estimate D2E/DX2                !
 ! D26   D(3,4,5,7)            179.047          estimate D2E/DX2                !
 ! D27   D(20,4,5,6)          -178.8117         estimate D2E/DX2                !
 ! D28   D(20,4,5,7)            -1.199          estimate D2E/DX2                !
 ! D29   D(4,5,7,8)           -177.8932         estimate D2E/DX2                !
 ! D30   D(6,5,7,8)             -0.3027         estimate D2E/DX2                !
 ! D31   D(5,7,8,9)            164.966          estimate D2E/DX2                !
 ! D32   D(5,7,8,10)           -15.7183         estimate D2E/DX2                !
 ! D33   D(7,8,9,13)           175.9974         estimate D2E/DX2                !
 ! D34   D(7,8,9,23)            -7.7755         estimate D2E/DX2                !
 ! D35   D(10,8,9,13)           -3.3016         estimate D2E/DX2                !
 ! D36   D(10,8,9,23)          172.9256         estimate D2E/DX2                !
 ! D37   D(7,8,10,11)         -176.7296         estimate D2E/DX2                !
 ! D38   D(7,8,10,21)            1.4715         estimate D2E/DX2                !
 ! D39   D(9,8,10,11)            2.6305         estimate D2E/DX2                !
 ! D40   D(9,8,10,21)         -179.1684         estimate D2E/DX2                !
 ! D41   D(8,9,13,12)            1.8159         estimate D2E/DX2                !
 ! D42   D(8,9,13,28)          179.9797         estimate D2E/DX2                !
 ! D43   D(23,9,13,12)        -174.62           estimate D2E/DX2                !
 ! D44   D(23,9,13,28)           3.5439         estimate D2E/DX2                !
 ! D45   D(8,9,23,25)          173.4825         estimate D2E/DX2                !
 ! D46   D(8,9,23,26)          -19.2425         estimate D2E/DX2                !
 ! D47   D(13,9,23,25)         -10.2901         estimate D2E/DX2                !
 ! D48   D(13,9,23,26)         156.985          estimate D2E/DX2                !
 ! D49   D(8,10,11,12)          -0.3407         estimate D2E/DX2                !
 ! D50   D(8,10,11,22)         179.0733         estimate D2E/DX2                !
 ! D51   D(21,10,11,12)       -178.5653         estimate D2E/DX2                !
 ! D52   D(21,10,11,22)          0.8487         estimate D2E/DX2                !
 ! D53   D(10,11,12,13)         -1.2411         estimate D2E/DX2                !
 ! D54   D(10,11,12,24)        179.8899         estimate D2E/DX2                !
 ! D55   D(22,11,12,13)        179.3447         estimate D2E/DX2                !
 ! D56   D(22,11,12,24)          0.4756         estimate D2E/DX2                !
 ! D57   D(11,12,13,9)           0.4655         estimate D2E/DX2                !
 ! D58   D(11,12,13,28)       -177.7531         estimate D2E/DX2                !
 ! D59   D(24,12,13,9)         179.3353         estimate D2E/DX2                !
 ! D60   D(24,12,13,28)          1.1168         estimate D2E/DX2                !
 --------------------------------------------------------------------------------
 Trust Radius=3.00D-01 FncErr=1.00D-07 GrdErr=1.00D-06
 Number of steps in this run=    144 maximum allowed number of steps=    168.
 GradGradGradGradGradGradGradGradGradGradGradGradGradGradGradGradGradGrad

                          Input orientation:                          
 ---------------------------------------------------------------------
 Center     Atomic      Atomic             Coordinates (Angstroms)
 Number     Number       Type             X           Y           Z
 ---------------------------------------------------------------------
      1          6           0       -1.205790    2.217560    0.603840
      2          6           0        0.020400    1.624950   -0.084450
      3          6           0        1.297260    2.372310    0.316620
      4          7           0        2.460530    1.808160   -0.345340
      5          6           0        3.712050    2.308310   -0.147410
      6          8           0        3.875590    3.242280    0.627290
      7          7           0        4.779830    1.732420   -0.776980
      8          6           0        6.565030    2.258290   -0.571520
      9          6           0        7.704870    1.482610   -0.977630
     10          6           0        6.776760    3.519450    0.015610
     11          6           0        8.057480    4.047590    0.158910
     12          6           0        9.160010    3.322770   -0.275910
     13          6           0        8.989050    2.056750   -0.831850
     14          1           0       -2.113230    1.657020    0.295140
     15          1           0       -1.331690    3.283470    0.317210
     16          1           0       -0.117630    1.691120   -1.185680
     17          1           0        0.112590    0.554300    0.200960
     18          1           0        1.431890    2.301420    1.418630
     19          1           0        1.198790    3.443310    0.031960
     20          1           0        2.336370    1.008720   -0.986440
     21          1           0        5.931180    4.113610    0.340780
     22          9           0        8.227810    5.273940    0.711770
     23          7           0        7.617450    0.128640   -1.449890
     24          1           0       10.155360    3.734160   -0.166100
     25          8           0        8.588510   -0.418070   -1.880580
     26          8           0        6.653330   -0.533720   -1.214170
     27          1           0       -1.101660    2.146140    1.707510
     28          1           0        9.877080    1.510650   -1.123630
 ---------------------------------------------------------------------
                    Distance matrix (angstroms):
                    1          2          3          4          5
     1  C    0.000000
     2  C    1.525933   0.000000
     3  C    2.524223   1.532898   0.000000
     4  N    3.809259   2.460866   1.452465   0.000000
     5  C    4.975717   3.754893   2.459803   1.362215   0.000000
     6  O    5.183727   4.240851   2.738823   2.237209   1.224420
     7  N    6.161954   4.810751   3.705903   2.360339   1.366807
     8  C    7.859311   6.593219   5.343332   4.135299   2.884764
     9  C    9.079706   7.737513   6.597281   5.292341   4.160968
    10  C    8.109380   7.017659   5.606376   4.657106   3.299376
    11  C    9.452785   8.397801   6.966492   6.049394   4.690596
    12  C   10.461609   9.297942   7.942122   6.868908   5.543096
    13  C   10.296690   9.010091   7.783456   6.551341   5.327145
    14  H    1.110382   2.167370   3.484759   4.620859   5.878258
    15  H    1.110933   2.177192   2.782371   4.122674   5.158112
    16  H    2.159540   1.111818   2.173209   2.714181   4.015642
    17  H    2.160294   1.111867   2.173012   2.717247   4.019207
    18  H    2.761932   2.170061   1.112464   2.100713   2.766163
    19  H    2.758897   2.169928   1.112551   2.099538   2.763490
    20  H    4.066593   2.560672   2.153391   1.032245   2.070121
    21  H    7.389218   6.427408   4.950346   4.222709   2.902064
    22  F    9.916951   9.017243   7.523837   6.811067   5.470397
    23  N    9.296825   7.862477   6.935374   5.534857   4.658279
    24  H   11.487759  10.352432   8.975165   7.934230   6.599215
    25  O   10.442567   8.989579   8.110255   6.698149   5.849520
    26  O    8.522938   7.066250   6.282978   4.880455   4.226847
    27  H    1.110870   2.177562   2.782183   4.125242   5.161282
    28  H   11.238945   9.911968   8.742430   7.463207   6.292604
                    6          7          8          9         10
     6  O    0.000000
     7  N    2.251511   0.000000
     8  C    3.104588   1.872349   0.000000
     9  C    4.509500   2.942537   1.437303   0.000000
    10  C    2.977879   2.794531   1.407152   2.448802   0.000000
    11  C    4.284403   4.120545   2.441829   2.827575   1.392735
    12  C    5.361655   4.686818   2.820359   2.448680   2.409055
    13  C    5.448123   4.222053   2.446275   1.414216   2.784225
    14  H    6.203978   6.976346   8.742129   9.901790   9.087283
    15  H    5.216667   6.399507   8.012429   9.304790   8.117488
    16  H    4.651748   4.914657   6.734747   7.828044   7.233153
    17  H    4.644046   4.911971   6.718206   7.739092   7.296412
    18  H    2.735527   4.043905   5.505605   6.764820   5.658595
    19  H    2.749562   4.050355   5.528561   6.869694   5.578514
    20  H    3.156282   2.556973   4.428899   5.389382   5.198551
    21  H    2.250945   2.871421   2.162468   3.436036   1.083405
    22  F    4.803811   5.162103   3.675026   4.183506   2.380844
    23  N    5.292537   3.328214   2.532692   1.436630   3.788409
    24  H    6.348773   5.768575   3.902951   3.425341   3.390289
    25  O    6.472958   4.510940   3.601529   2.282263   4.730966
    26  O    5.036367   2.972630   2.866377   2.286323   4.237426
    27  H    5.209742   6.398107   7.999043   9.230667   8.174228
    28  H    6.487075   5.113835   3.439981   2.177292   3.865893
                   11         12         13         14         15
    11  C    0.000000
    12  C    1.389246   0.000000
    13  C    2.410990   1.393235   0.000000
    14  H   10.448767  11.409941  11.166491   0.000000
    15  H    9.421542  10.508525  10.456713   1.804614   0.000000
    16  H    8.613553   9.463856   9.120883   2.485238   2.503637
    17  H    8.679062   9.473523   9.061766   2.485787   3.089956
    18  H    6.966667   7.977372   7.888928   3.774302   3.132878
    19  H    6.886429   7.968082   7.959703   3.772211   2.551518
    20  H    6.578576   7.240286   6.736499   4.675648   4.508731
    21  H    2.135085   3.380988   3.867338   8.411269   7.310196
    22  F    1.355950   2.377304   3.648638  10.963248   9.772497
    23  N    4.259112   3.736333   2.445581  10.003360   9.652083
    24  H    2.145919   1.082599   2.148769  12.451729  11.506043
    25  O    4.937978   4.110409   2.717536  11.116069  10.813975
    26  O    4.984515   4.694283   3.508887   9.161328   8.982016
    27  H    9.481747  10.517618  10.405708   1.804800   1.810902
    28  H    3.375191   2.125229   1.082570  12.074844  11.439206
                   16         17         18         19         20
    16  H    0.000000
    17  H    1.807797   0.000000
    18  H    3.091263   2.505135   0.000000
    19  H    2.507146   3.091079   1.811381   0.000000
    20  H    2.554894   2.561565   2.876373   2.873753   0.000000
    21  H    6.692282   6.822333   4.968843   4.789592   4.931989
    22  F    9.278108   9.401740   7.451178   7.295236   7.468941
    23  N    7.895734   7.696065   7.156153   7.374423   5.373931
    24  H   10.523682  10.540563   8.981261   8.963480   8.320913
    25  O    8.984901   8.781773   8.336523   8.554299   6.474911
    26  O    7.127175   6.779945   6.498699   6.864518   4.589894
    27  H    3.089645   2.505604   2.554690   3.127649   4.513440
    28  H    9.996532   9.900223   8.854922   8.965672   7.558642
                   21         22         23         24         25
    21  H    0.000000
    22  F    2.599713   0.000000
    23  N    4.682947   5.614216   0.000000
    24  H    4.271371   2.618593   4.592263   0.000000
    25  O    5.703680   6.264931   1.194715   4.757675   0.000000
    26  O    4.953488   6.318002   1.193236   5.619383   2.049975
    27  H    7.429652   9.890078   9.490119  11.521837  10.646547
    28  H    4.948740   4.500126   2.668768   2.436863   2.439948
                   26         27         28
    26  O    0.000000
    27  H    8.709635   0.000000
    28  H    3.818404  11.355700   0.000000
 Stoichiometry    C10H11FN3O3(1-)
 Framework group  C1[X(C10H11FN3O3)]
 Deg. of freedom    78
 Full point group                 C1      NOp   1
 Largest Abelian subgroup         C1      NOp   1
 Largest concise Abelian subgroup C1      NOp   1
                         Standard orientation:                         
 ---------------------------------------------------------------------
 Center     Atomic      Atomic             Coordinates (Angstroms)
 Number     Number       Type             X           Y           Z
 ---------------------------------------------------------------------
      1          6           0       -6.578891    0.211622    0.123241
      2          6           0       -5.289949   -0.561148   -0.141193
      3          6           0       -4.057834    0.326098    0.069673
      4          7           0       -2.834045   -0.412325   -0.188640
      5          6           0       -1.607093    0.167281   -0.069162
      6          8           0       -1.521028    1.334669    0.290009
      7          7           0       -0.481953   -0.572501   -0.303562
      8          6           0        1.274716    0.051695   -0.129825
      9          6           0        2.444116   -0.782106   -0.073976
     10          6           0        1.433412    1.448372   -0.065120
     11          6           0        2.695826    2.033358   -0.003382
     12          6           0        3.831952    1.233863    0.002278
     13          6           0        3.710209   -0.153720   -0.027636
     14          1           0       -7.452207   -0.455224   -0.036710
     15          1           0       -6.659783    1.075844   -0.570119
     16          1           0       -5.302725   -0.935302   -1.188085
     17          1           0       -5.242469   -1.431343    0.549282
     18          1           0       -4.048577    0.696100    1.118763
     19          1           0       -4.111635    1.196696   -0.620930
     20          1           0       -2.894462   -1.402425   -0.474262
     21          1           0        0.563431    2.093488   -0.092059
     22          9           0        2.816841    3.383226    0.039205
     23          7           0        2.394994   -2.215071    0.016040
     24          1           0        4.813260    1.688749    0.048469
     25          8           0        3.402035   -2.853549   -0.058519
     26          8           0        1.403095   -2.764725    0.387292
     27          1           0       -6.600132    0.580758    1.170771
     28          1           0        4.619163   -0.740148    0.015534
 ---------------------------------------------------------------------
 Rotational constants (GHZ):      0.7128109      0.2002966      0.1575112
 General basis read from cards:  (6D, 7F)
 There are   345 symmetry adapted cartesian basis functions of A   symmetry.
 There are   345 symmetry adapted basis functions of A   symmetry.
   345 basis functions,   588 primitive gaussians,   345 cartesian basis functions
    63 alpha electrons       63 beta electrons
       nuclear repulsion energy      1128.3198560528 Hartrees.
 NAtoms=   28 NActive=   28 NUniq=   28 SFac= 1.00D+00 NAtFMM=   60 NAOKFM=F Big=F
 Integral buffers will be    131072 words long.
 Raffenetti 2 integral format.
 Two-electron integral symmetry is turned on.
 One-electron integrals computed using PRISM.
 NBasis=   345 RedAO= T EigKep=  1.40D-06  NBF=   345
 NBsUse=   345 1.00D-06 EigRej= -1.00D+00 NBFU=   345
 ExpMin= 4.38D-02 ExpMax= 7.00D+03 ExpMxC= 1.05D+03 IAcc=3 IRadAn=         5 AccDes= 0.00D+00
 Harris functional with IExCor= 1009 and IRadAn=       5 diagonalized for initial guess.
 HarFok:  IExCor= 1009 AccDes= 0.00D+00 IRadAn=         5 IDoV= 1 UseB2=F ITyADJ=14
 ICtDFT=  3500011 ScaDFX=  1.000000  1.000000  1.000000  1.000000
 FoFCou: FMM=F IPFlag=           0 FMFlag=      100000 FMFlg1=           0
         NFxFlg=           0 DoJE=T BraDBF=F KetDBF=T FulRan=T
         wScrn=  0.000000 ICntrl=     500 IOpCl=  0 I1Cent=   200000004 NGrid=           0
         NMat0=    1 NMatS0=      1 NMatT0=    0 NMatD0=    1 NMtDS0=    0 NMtDT0=    0
 Petite list used in FoFCou.
 Requested convergence on RMS density matrix=1.00D-08 within 128 cycles.
 Requested convergence on MAX density matrix=1.00D-06.
 Requested convergence on             energy=1.00D-06.
 No special actions if energy rises.
 Restarting incremental Fock formation.
 SCF Done:  E(RM062X) =  -876.987524187     A.U. after   23 cycles
            NFock= 23  Conv=0.37D-08     -V/T= 2.0087

 **********************************************************************

            Population analysis using the SCF density.

 **********************************************************************

 Orbital symmetries:
       Occupied  (A) (A) (A) (A) (A) (A) (A) (A) (A) (A) (A) (A)
                 (A) (A) (A) (A) (A) (A) (A) (A) (A) (A) (A) (A)
                 (A) (A) (A) (A) (A) (A) (A) (A) (A) (A) (A) (A)
                 (A) (A) (A) (A) (A) (A) (A) (A) (A) (A) (A) (A)
                 (A) (A) (A) (A) (A) (A) (A) (A) (A) (A) (A) (A)
                 (A) (A) (A)
       Virtual   (A) (A) (A) (A) (A) (A) (A) (A) (A) (A) (A) (A)
                 (A) (A) (A) (A) (A) (A) (A) (A) (A) (A) (A) (A)
                 (A) (A) (A) (A) (A) (A) (A) (A) (A) (A) (A) (A)
                 (A) (A) (A) (A) (A) (A) (A) (A) (A) (A) (A) (A)
                 (A) (A) (A) (A) (A) (A) (A) (A) (A) (A) (A) (A)
                 (A) (A) (A) (A) (A) (A) (A) (A) (A) (A) (A) (A)
                 (A) (A) (A) (A) (A) (A) (A) (A) (A) (A) (A) (A)
                 (A) (A) (A) (A) (A) (A) (A) (A) (A) (A) (A) (A)
                 (A) (A) (A) (A) (A) (A) (A) (A) (A) (A) (A) (A)
                 (A) (A) (A) (A) (A) (A) (A) (A) (A) (A) (A) (A)
                 (A) (A) (A) (A) (A) (A) (A) (A) (A) (A) (A) (A)
                 (A) (A) (A) (A) (A) (A) (A) (A) (A) (A) (A) (A)
                 (A) (A) (A) (A) (A) (A) (A) (A) (A) (A) (A) (A)
                 (A) (A) (A) (A) (A) (A) (A) (A) (A) (A) (A) (A)
                 (A) (A) (A) (A) (A) (A) (A) (A) (A) (A) (A) (A)
                 (A) (A) (A) (A) (A) (A) (A) (A) (A) (A) (A) (A)
                 (A) (A) (A) (A) (A) (A) (A) (A) (A) (A) (A) (A)
                 (A) (A) (A) (A) (A) (A) (A) (A) (A) (A) (A) (A)
                 (A) (A) (A) (A) (A) (A) (A) (A) (A) (A) (A) (A)
                 (A) (A) (A) (A) (A) (A) (A) (A) (A) (A) (A) (A)
                 (A) (A) (A) (A) (A) (A) (A) (A) (A) (A) (A) (A)
                 (A) (A) (A) (A) (A) (A) (A) (A) (A) (A) (A) (A)
                 (A) (A) (A) (A) (A) (A) (A) (A) (A) (A) (A) (A)
                 (A) (A) (A) (A) (A) (A)
 The electronic state is 1-A.
 Alpha  occ. eigenvalues --  -25.18185 -19.54621 -19.54491 -19.41992 -14.88768
 Alpha  occ. eigenvalues --  -14.63356 -14.57726 -10.54088 -10.50020 -10.49688
 Alpha  occ. eigenvalues --  -10.48781 -10.47525 -10.46847 -10.46415 -10.46132
 Alpha  occ. eigenvalues --  -10.46053 -10.44108  -1.27153  -1.27004  -1.05874
 Alpha  occ. eigenvalues --   -0.99190  -0.87702  -0.87341  -0.79617  -0.78603
 Alpha  occ. eigenvalues --   -0.75182  -0.72572  -0.67712  -0.65453  -0.59653
 Alpha  occ. eigenvalues --   -0.57508  -0.56852  -0.52370  -0.51678  -0.51236
 Alpha  occ. eigenvalues --   -0.49779  -0.48393  -0.46499  -0.45818  -0.45204
 Alpha  occ. eigenvalues --   -0.43312  -0.40660  -0.38955  -0.37972  -0.37865
 Alpha  occ. eigenvalues --   -0.37496  -0.36075  -0.33380  -0.33105  -0.32604
 Alpha  occ. eigenvalues --   -0.32295  -0.30116  -0.29392  -0.29204  -0.27437
 Alpha  occ. eigenvalues --   -0.25056  -0.23920  -0.20751  -0.20427  -0.18568
 Alpha  occ. eigenvalues --   -0.16437  -0.11253  -0.09673
 Alpha virt. eigenvalues --    0.07470   0.09864   0.10878   0.11406   0.12587
 Alpha virt. eigenvalues --    0.12609   0.13406   0.13789   0.14219   0.15210
 Alpha virt. eigenvalues --    0.16024   0.16201   0.16261   0.16383   0.17015
 Alpha virt. eigenvalues --    0.17276   0.18072   0.18376   0.19201   0.19765
 Alpha virt. eigenvalues --    0.19987   0.20623   0.20811   0.21335   0.23010
 Alpha virt. eigenvalues --    0.23510   0.23944   0.24196   0.24777   0.25628
 Alpha virt. eigenvalues --    0.26162   0.26799   0.27318   0.28042   0.28174
 Alpha virt. eigenvalues --    0.28511   0.29411   0.30333   0.30827   0.30899
 Alpha virt. eigenvalues --    0.31219   0.31571   0.31988   0.32693   0.33145
 Alpha virt. eigenvalues --    0.33367   0.33880   0.34344   0.34558   0.34944
 Alpha virt. eigenvalues --    0.35665   0.36267   0.36634   0.37023   0.37595
 Alpha virt. eigenvalues --    0.37932   0.38271   0.38591   0.39808   0.40327
 Alpha virt. eigenvalues --    0.40664   0.41036   0.41529   0.41985   0.42410
 Alpha virt. eigenvalues --    0.42679   0.43206   0.43405   0.44030   0.44686
 Alpha virt. eigenvalues --    0.45182   0.45792   0.46631   0.46846   0.46955
 Alpha virt. eigenvalues --    0.48003   0.48455   0.48749   0.49694   0.50275
 Alpha virt. eigenvalues --    0.51071   0.51736   0.51853   0.52317   0.52959
 Alpha virt. eigenvalues --    0.53432   0.56081   0.56557   0.57667   0.58648
 Alpha virt. eigenvalues --    0.59854   0.61484   0.61757   0.63247   0.65548
 Alpha virt. eigenvalues --    0.66399   0.67260   0.71389   0.73463   0.77900
 Alpha virt. eigenvalues --    0.77915   0.79014   0.80129   0.80530   0.82298
 Alpha virt. eigenvalues --    0.83298   0.84850   0.85944   0.86345   0.87876
 Alpha virt. eigenvalues --    0.89160   0.89468   0.91812   0.92594   0.94543
 Alpha virt. eigenvalues --    0.95008   0.97137   0.97819   0.98572   0.99389
 Alpha virt. eigenvalues --    1.00294   1.02160   1.03267   1.05842   1.06880
 Alpha virt. eigenvalues --    1.08839   1.10040   1.10272   1.11211   1.12700
 Alpha virt. eigenvalues --    1.14266   1.15633   1.17594   1.18683   1.21295
 Alpha virt. eigenvalues --    1.21419   1.22871   1.23558   1.24019   1.24479
 Alpha virt. eigenvalues --    1.25002   1.25707   1.26542   1.27495   1.27677
 Alpha virt. eigenvalues --    1.29526   1.31290   1.32947   1.34756   1.36069
 Alpha virt. eigenvalues --    1.36697   1.38219   1.39115   1.40206   1.41727
 Alpha virt. eigenvalues --    1.42671   1.45493   1.46365   1.47544   1.49175
 Alpha virt. eigenvalues --    1.49661   1.51691   1.52207   1.52599   1.53506
 Alpha virt. eigenvalues --    1.54241   1.55988   1.57083   1.58685   1.59134
 Alpha virt. eigenvalues --    1.60301   1.61262   1.62220   1.62624   1.64297
 Alpha virt. eigenvalues --    1.66798   1.68384   1.69868   1.72374   1.73238
 Alpha virt. eigenvalues --    1.74430   1.77425   1.81523   1.82818   1.85962
 Alpha virt. eigenvalues --    1.87554   1.90164   1.91077   1.91718   1.92581
 Alpha virt. eigenvalues --    1.94856   1.96755   1.98187   1.98798   1.99736
 Alpha virt. eigenvalues --    2.01498   2.01997   2.03321   2.05019   2.05959
 Alpha virt. eigenvalues --    2.07554   2.08106   2.08184   2.09647   2.11154
 Alpha virt. eigenvalues --    2.11595   2.14025   2.14542   2.15052   2.15090
 Alpha virt. eigenvalues --    2.17054   2.17622   2.18782   2.23708   2.25018
 Alpha virt. eigenvalues --    2.26087   2.27023   2.27959   2.29237   2.31414
 Alpha virt. eigenvalues --    2.32148   2.33735   2.35565   2.38896   2.39321
 Alpha virt. eigenvalues --    2.39898   2.40696   2.41618   2.43477   2.45138
 Alpha virt. eigenvalues --    2.46968   2.47610   2.49566   2.50793   2.53765
 Alpha virt. eigenvalues --    2.58986   2.62419   2.67010   2.69200   2.73193
 Alpha virt. eigenvalues --    2.75511   2.75807   2.75864   2.79094   2.81498
 Alpha virt. eigenvalues --    2.83977   2.86354   2.87125   2.88783   2.89636
 Alpha virt. eigenvalues --    2.91232   2.93111   2.96498   3.00366   3.09803
 Alpha virt. eigenvalues --    3.16165   3.19049   3.22724   3.25901   3.28872
 Alpha virt. eigenvalues --    3.37027   3.37406   3.39205   3.43808   3.56155
 Alpha virt. eigenvalues --    4.25769   4.31897   4.36197   4.40266   4.43999
 Alpha virt. eigenvalues --    4.46055   4.49152   4.51194   4.53645   4.61135
 Alpha virt. eigenvalues --    4.63679   4.65846   4.70231   4.82221   4.88879
 Alpha virt. eigenvalues --    4.90315   6.18399
          Condensed to atoms (all electrons):
               1          2          3          4          5          6
     1  C    5.662081  -0.081944   0.042253  -0.005263  -0.087805  -0.002406
     2  C   -0.081944   6.549380  -0.909825  -0.115694   0.315772   0.046251
     3  C    0.042253  -0.909825   7.707582   0.335621  -1.149992  -0.056877
     4  N   -0.005263  -0.115694   0.335621   7.855243   0.216958  -0.205876
     5  C   -0.087805   0.315772  -1.149992   0.216958   5.947678   0.525691
     6  O   -0.002406   0.046251  -0.056877  -0.205876   0.525691   8.635731
     7  N   -0.001958   0.029980  -0.108862  -0.313296   0.417396  -0.152494
     8  C   -0.002695   0.019198  -0.148479  -0.109562   0.180294  -0.224288
     9  C   -0.004652   0.028326  -0.285934  -0.036479  -0.924993  -0.159385
    10  C    0.001857  -0.018148   0.108554  -0.018450   0.112584   0.113834
    11  C   -0.000357  -0.002889  -0.031639  -0.005839  -0.235975   0.160197
    12  C    0.000016   0.000170   0.000400  -0.000480  -0.013656  -0.009387
    13  C   -0.000098   0.000651  -0.005006   0.003370   0.091487   0.018416
    14  H    0.415850  -0.108521   0.040124   0.000626  -0.000388   0.000007
    15  H    0.420379  -0.061218  -0.012481  -0.000068  -0.001322  -0.000052
    16  H   -0.036848   0.419592  -0.067197   0.003112  -0.007311  -0.000305
    17  H   -0.038906   0.417952  -0.064445   0.002306  -0.005577  -0.000249
    18  H    0.000953  -0.050096   0.417655  -0.061364  -0.002315  -0.001614
    19  H   -0.003172  -0.063738   0.433511  -0.070990   0.001315   0.000291
    20  H   -0.004299   0.013930  -0.134083   0.227675   0.090605   0.011746
    21  H    0.000015  -0.000361   0.006619   0.003228   0.038372   0.003060
    22  F    0.000000  -0.000001   0.000247   0.000053   0.003782   0.000220
    23  N    0.000153  -0.001189   0.009459  -0.002320  -0.044430   0.001540
    24  H    0.000000  -0.000000   0.000004   0.000001   0.000619   0.000009
    25  O    0.000002  -0.000033   0.000705  -0.000106   0.011594  -0.000004
    26  O   -0.000053   0.000440  -0.006931  -0.011860  -0.029920  -0.001654
    27  H    0.421057  -0.062667  -0.011768  -0.000041  -0.001105  -0.000072
    28  H    0.000000  -0.000000   0.000010   0.000001   0.001471  -0.000001
               7          8          9         10         11         12
     1  C   -0.001958  -0.002695  -0.004652   0.001857  -0.000357   0.000016
     2  C    0.029980   0.019198   0.028326  -0.018148  -0.002889   0.000170
     3  C   -0.108862  -0.148479  -0.285934   0.108554  -0.031639   0.000400
     4  N   -0.313296  -0.109562  -0.036479  -0.018450  -0.005839  -0.000480
     5  C    0.417396   0.180294  -0.924993   0.112584  -0.235975  -0.013656
     6  O   -0.152494  -0.224288  -0.159385   0.113834   0.160197  -0.009387
     7  N    7.363999   0.041408   0.188561  -0.192981   0.020631   0.021481
     8  C    0.041408  28.213280 -17.271648   0.688976  -1.615332  -2.454170
     9  C    0.188561 -17.271648  35.265579  -3.701122  -2.530989   0.813853
    10  C   -0.192981   0.688976  -3.701122  16.195150  -3.261852  -0.132243
    11  C    0.020631  -1.615332  -2.530989  -3.261852  11.817511  -0.150200
    12  C    0.021481  -2.454170   0.813853  -0.132243  -0.150200   9.572463
    13  C    0.125660  -2.566172  -2.896088  -4.118224   1.604658  -1.785748
    14  H    0.000015  -0.000009  -0.000001   0.000004   0.000000  -0.000000
    15  H    0.000019  -0.000015  -0.000002  -0.000002  -0.000001   0.000000
    16  H   -0.000736   0.000138   0.000054  -0.000255  -0.000019   0.000001
    17  H   -0.000286  -0.000330  -0.000020   0.000077   0.000005   0.000000
    18  H   -0.003239   0.006571   0.000531  -0.005435  -0.001013   0.000004
    19  H    0.002479  -0.009396  -0.000412   0.007104   0.001344   0.000001
    20  H    0.034863   0.009335   0.005222  -0.002715  -0.000627   0.000021
    21  H   -0.007546  -0.131063  -0.028805   0.440974  -0.033235   0.023169
    22  F   -0.000196   0.003486  -0.050097  -0.144264   0.305693  -0.176748
    23  N   -0.032937   0.593419  -1.206290   0.398130  -0.020903   0.033353
    24  H    0.000065   0.002781  -0.014055   0.058536  -0.031354   0.294805
    25  O   -0.018248   0.734037  -0.741629   0.059471  -0.026165   0.173814
    26  O   -0.057356  -0.454090   0.055450  -0.099352   0.059076  -0.010278
    27  H   -0.000001   0.000028   0.000002  -0.000033  -0.000002   0.000000
    28  H    0.000001   0.125478   0.078676  -0.011819  -0.019797  -0.112695
              13         14         15         16         17         18
     1  C   -0.000098   0.415850   0.420379  -0.036848  -0.038906   0.000953
     2  C    0.000651  -0.108521  -0.061218   0.419592   0.417952  -0.050096
     3  C   -0.005006   0.040124  -0.012481  -0.067197  -0.064445   0.417655
     4  N    0.003370   0.000626  -0.000068   0.003112   0.002306  -0.061364
     5  C    0.091487  -0.000388  -0.001322  -0.007311  -0.005577  -0.002315
     6  O    0.018416   0.000007  -0.000052  -0.000305  -0.000249  -0.001614
     7  N    0.125660   0.000015   0.000019  -0.000736  -0.000286  -0.003239
     8  C   -2.566172  -0.000009  -0.000015   0.000138  -0.000330   0.006571
     9  C   -2.896088  -0.000001  -0.000002   0.000054  -0.000020   0.000531
    10  C   -4.118224   0.000004  -0.000002  -0.000255   0.000077  -0.005435
    11  C    1.604658   0.000000  -0.000001  -0.000019   0.000005  -0.001013
    12  C   -1.785748  -0.000000   0.000000   0.000001   0.000000   0.000004
    13  C   14.900853   0.000000  -0.000000  -0.000001   0.000000  -0.000039
    14  H    0.000000   0.522997  -0.026845  -0.003162  -0.003125  -0.000080
    15  H   -0.000000  -0.026845   0.506083  -0.004950   0.004126  -0.000331
    16  H   -0.000001  -0.003162  -0.004950   0.525153  -0.034604   0.004344
    17  H    0.000000  -0.003125   0.004126  -0.034604   0.522612  -0.006426
    18  H   -0.000039  -0.000080  -0.000331   0.004344  -0.006426   0.536482
    19  H    0.000040  -0.000071   0.002842  -0.006444   0.004389  -0.043847
    20  H    0.000047  -0.000001   0.000000   0.000338   0.000413   0.002560
    21  H   -0.015777  -0.000000   0.000000   0.000000   0.000000  -0.000002
    22  F    0.007374   0.000000   0.000000   0.000000   0.000000   0.000000
    23  N   -0.212165   0.000000   0.000000  -0.000000  -0.000000   0.000006
    24  H   -0.004411   0.000000   0.000000   0.000000   0.000000   0.000000
    25  O   -0.328900   0.000000   0.000000  -0.000000   0.000000  -0.000000
    26  O    0.455754  -0.000000   0.000000  -0.000001   0.000001  -0.000006
    27  H   -0.000000  -0.026687  -0.028822   0.004141  -0.004916   0.002839
    28  H    0.264267  -0.000000   0.000000   0.000000   0.000000  -0.000000
              19         20         21         22         23         24
     1  C   -0.003172  -0.004299   0.000015   0.000000   0.000153   0.000000
     2  C   -0.063738   0.013930  -0.000361  -0.000001  -0.001189  -0.000000
     3  C    0.433511  -0.134083   0.006619   0.000247   0.009459   0.000004
     4  N   -0.070990   0.227675   0.003228   0.000053  -0.002320   0.000001
     5  C    0.001315   0.090605   0.038372   0.003782  -0.044430   0.000619
     6  O    0.000291   0.011746   0.003060   0.000220   0.001540   0.000009
     7  N    0.002479   0.034863  -0.007546  -0.000196  -0.032937   0.000065
     8  C   -0.009396   0.009335  -0.131063   0.003486   0.593419   0.002781
     9  C   -0.000412   0.005222  -0.028805  -0.050097  -1.206290  -0.014055
    10  C    0.007104  -0.002715   0.440974  -0.144264   0.398130   0.058536
    11  C    0.001344  -0.000627  -0.033235   0.305693  -0.020903  -0.031354
    12  C    0.000001   0.000021   0.023169  -0.176748   0.033353   0.294805
    13  C    0.000040   0.000047  -0.015777   0.007374  -0.212165  -0.004411
    14  H   -0.000071  -0.000001  -0.000000   0.000000   0.000000   0.000000
    15  H    0.002842   0.000000   0.000000   0.000000   0.000000   0.000000
    16  H   -0.006444   0.000338   0.000000   0.000000  -0.000000   0.000000
    17  H    0.004389   0.000413   0.000000   0.000000  -0.000000   0.000000
    18  H   -0.043847   0.002560  -0.000002   0.000000   0.000006   0.000000
    19  H    0.541930   0.002704   0.000002   0.000000  -0.000008  -0.000000
    20  H    0.002704   0.334463  -0.000001   0.000000  -0.000137  -0.000000
    21  H    0.000002  -0.000001   0.407778  -0.002152  -0.000523  -0.000113
    22  F    0.000000   0.000000  -0.002152   9.401091   0.000351  -0.002413
    23  N   -0.000008  -0.000137  -0.000523   0.000351   7.409570  -0.000249
    24  H   -0.000000  -0.000000  -0.000113  -0.002413  -0.000249   0.500898
    25  O    0.000000  -0.000001   0.000041  -0.000021   0.308904   0.000024
    26  O    0.000003   0.000036  -0.000017   0.000005   0.329678   0.000025
    27  H   -0.000352  -0.000001  -0.000000   0.000000  -0.000000  -0.000000
    28  H   -0.000000   0.000000   0.000010  -0.000355  -0.032958  -0.004264
              25         26         27         28
     1  C    0.000002  -0.000053   0.421057   0.000000
     2  C   -0.000033   0.000440  -0.062667  -0.000000
     3  C    0.000705  -0.006931  -0.011768   0.000010
     4  N   -0.000106  -0.011860  -0.000041   0.000001
     5  C    0.011594  -0.029920  -0.001105   0.001471
     6  O   -0.000004  -0.001654  -0.000072  -0.000001
     7  N   -0.018248  -0.057356  -0.000001   0.000001
     8  C    0.734037  -0.454090   0.000028   0.125478
     9  C   -0.741629   0.055450   0.000002   0.078676
    10  C    0.059471  -0.099352  -0.000033  -0.011819
    11  C   -0.026165   0.059076  -0.000002  -0.019797
    12  C    0.173814  -0.010278   0.000000  -0.112695
    13  C   -0.328900   0.455754  -0.000000   0.264267
    14  H    0.000000  -0.000000  -0.026687  -0.000000
    15  H    0.000000   0.000000  -0.028822   0.000000
    16  H   -0.000000  -0.000001   0.004141   0.000000
    17  H    0.000000   0.000001  -0.004916   0.000000
    18  H   -0.000000  -0.000006   0.002839  -0.000000
    19  H    0.000000   0.000003  -0.000352  -0.000000
    20  H   -0.000001   0.000036  -0.000001   0.000000
    21  H    0.000041  -0.000017  -0.000000   0.000010
    22  F   -0.000021   0.000005   0.000000  -0.000355
    23  N    0.308904   0.329678  -0.000000  -0.032958
    24  H    0.000024   0.000025  -0.000000  -0.004264
    25  O    8.079927  -0.203670  -0.000000   0.015038
    26  O   -0.203670   7.892109  -0.000000  -0.001755
    27  H   -0.000000  -0.000000   0.504735   0.000000
    28  H    0.015038  -0.001755   0.000000   0.466176
 Mulliken charges:
               1
     1  C   -0.694161
     2  C   -0.365317
     3  C   -0.109227
     4  N   -0.690507
     5  C    0.549169
     6  O   -0.702328
     7  N   -0.356422
     8  C    0.368819
     9  C   -0.583654
    10  C   -0.478355
    11  C   -0.000927
    12  C   -0.087946
    13  C    0.460051
    14  H    0.189268
    15  H    0.202658
    16  H    0.204961
    17  H    0.207002
    18  H    0.203863
    19  H    0.200476
    20  H    0.407905
    21  H    0.296325
    22  F   -0.346055
    23  N   -0.530453
    24  H    0.199091
    25  O   -0.064779
    26  O    0.084365
    27  H    0.203662
    28  H    0.232516
 Sum of Mulliken charges =  -1.00000
 Mulliken charges with hydrogens summed into heavy atoms:
               1
     1  C   -0.098573
     2  C    0.046646
     3  C    0.295112
     4  N   -0.282602
     5  C    0.549169
     6  O   -0.702328
     7  N   -0.356422
     8  C    0.368819
     9  C   -0.583654
    10  C   -0.182030
    11  C   -0.000927
    12  C    0.111144
    13  C    0.692567
    22  F   -0.346055
    23  N   -0.530453
    25  O   -0.064779
    26  O    0.084365
 Electronic spatial extent (au):  <R**2>=           6531.1758
 Charge=             -1.0000 electrons
 Dipole moment (field-independent basis, Debye):
    X=             -1.2749    Y=              1.5298    Z=             -0.4467  Tot=              2.0409
 Quadrupole moment (field-independent basis, Debye-Ang):
   XX=           -116.2183   YY=           -131.8502   ZZ=           -104.8434
   XY=             13.6264   XZ=              1.6656   YZ=             -0.5666
 Traceless Quadrupole moment (field-independent basis, Debye-Ang):
   XX=              1.4190   YY=            -14.2129   ZZ=             12.7939
   XY=             13.6264   XZ=              1.6656   YZ=             -0.5666
 Octapole moment (field-independent basis, Debye-Ang**2):
  XXX=             29.4422  YYY=             24.9068  ZZZ=              5.6300  XYY=            -52.0344
  XXY=             13.6155  XXZ=              0.0758  XZZ=              3.8937  YZZ=             -0.5213
  YYZ=             -6.5534  XYZ=              2.2772
 Hexadecapole moment (field-independent basis, Debye-Ang**3):
 XXXX=          -7343.5054 YYYY=          -1899.6929 ZZZZ=           -155.2921 XXXY=            192.4659
 XXXZ=             39.8012 YYYX=            102.3774 YYYZ=              6.4436 ZZZX=              0.8776
 ZZZY=             -3.5940 XXYY=          -1648.0780 XXZZ=          -1212.7127 YYZZ=           -290.7460
 XXYZ=             -8.3504 YYXZ=              5.9659 ZZXY=             -5.1090
 N-N= 1.128319856053D+03 E-N=-4.322959873069D+03  KE= 8.694471816527D+02
 Calling FoFJK, ICntrl=      2127 FMM=F ISym2X=0 I1Cent= 0 IOpClX= 0 NMat=1 NMatS=1 NMatT=0.
 ***** Axes restored to original set *****
 -------------------------------------------------------------------
 Center     Atomic                   Forces (Hartrees/Bohr)
 Number     Number              X              Y              Z
 -------------------------------------------------------------------
      1        6          -0.006272076    0.000054801    0.001074401
      2        6           0.004513882   -0.002338076   -0.002610445
      3        6           0.006024481    0.000457242   -0.001326792
      4        7          -0.023010929   -0.031151465   -0.024373081
      5        6           0.087563285    0.007997513   -0.000864461
      6        8          -0.019438434    0.047595014    0.040606901
      7        7           0.055271338   -0.029671034   -0.031982525
      8        6          -0.086789870   -0.015507356    0.007605816
      9        6          -0.014820823    0.042481411    0.010177812
     10        6           0.005889366    0.007161377   -0.002067075
     11        6          -0.013233547   -0.015761915   -0.008066490
     12        6           0.007888934   -0.000563803    0.000154675
     13        6          -0.010033674    0.000168771    0.000373994
     14        1           0.005754539    0.006884883    0.004719863
     15        1          -0.000195468   -0.009258547    0.004579502
     16        1           0.002604896   -0.003259051    0.008317039
     17        1           0.000356027    0.007864595   -0.005146704
     18        1          -0.001565602    0.004792382   -0.008402028
     19        1           0.000558306   -0.007177818    0.006574699
     20        1           0.004744584    0.014245449    0.011505082
     21        1          -0.005431088   -0.004139158    0.000668581
     22        9           0.000838023   -0.006073845   -0.002540618
     23        7          -0.013279220   -0.006543588    0.031241948
     24        1           0.002150677    0.000804939    0.000365919
     25        8           0.071756685   -0.004207700   -0.037222916
     26        8          -0.057282383   -0.002856674    0.008766102
     27        1          -0.002551541    0.002408484   -0.009712414
     28        1          -0.002010365   -0.004406829   -0.002416785
 -------------------------------------------------------------------
 Cartesian Forces:  Max     0.087563285 RMS     0.022405453

 GradGradGradGradGradGradGradGradGradGradGradGradGradGradGradGradGradGrad
 Berny optimization.
 FormGI is forming the generalized inverse of G from B-inverse, IUseBI=4.
 GSVD:  received Info=                   1 from GESDD.
 Internal  Forces:  Max     0.110908427 RMS     0.018140551
 Search for a local minimum.
 Step number   1 out of a maximum of  144
 All quantities printed in internal units (Hartrees-Bohrs-Radians)
 Mixed Optimization -- RFO/linear search
 Second derivative matrix not updated -- first step.
 ITU=  0
     Eigenvalues ---    0.00230   0.00331   0.00423   0.00998   0.01207
     Eigenvalues ---    0.01474   0.01489   0.01504   0.01605   0.01765
     Eigenvalues ---    0.02030   0.02058   0.02086   0.02131   0.02178
     Eigenvalues ---    0.02188   0.02192   0.02199   0.02212   0.03757
     Eigenvalues ---    0.04437   0.04934   0.05553   0.05673   0.05782
     Eigenvalues ---    0.08032   0.09182   0.11745   0.11974   0.12669
     Eigenvalues ---    0.15992   0.15993   0.15997   0.16000   0.16000
     Eigenvalues ---    0.16000   0.16000   0.21963   0.22000   0.22003
     Eigenvalues ---    0.22357   0.23483   0.24563   0.24943   0.24991
     Eigenvalues ---    0.24998   0.24999   0.25000   0.25000   0.25000
     Eigenvalues ---    0.25000   0.29157   0.29802   0.32331   0.32341
     Eigenvalues ---    0.32403   0.32408   0.32501   0.32508   0.32560
     Eigenvalues ---    0.35586   0.35682   0.35686   0.37924   0.38594
     Eigenvalues ---    0.40051   0.40849   0.42441   0.43258   0.45716
     Eigenvalues ---    0.45847   0.47082   0.51595   0.52502   0.53775
     Eigenvalues ---    0.93451   1.07524   1.08297
 RFO step:  Lambda=-1.18217809D-01 EMin= 2.30000000D-03
 Linear search not attempted -- first point.
 Maximum step size (   0.300) exceeded in Quadratic search.
    -- Step size scaled by   0.496
 Iteration  1 RMS(Cart)=  0.09204063 RMS(Int)=  0.00330487
 Iteration  2 RMS(Cart)=  0.00858075 RMS(Int)=  0.00013926
 Iteration  3 RMS(Cart)=  0.00001104 RMS(Int)=  0.00013921
 Iteration  4 RMS(Cart)=  0.00000000 RMS(Int)=  0.00013921
 Variable       Old X    -DE/DX   Delta X   Delta X   Delta X     New X
                                 (Linear)    (Quad)   (Total)
    R1        2.88360   0.00295   0.00000   0.00352   0.00352   2.88712
    R2        2.09832  -0.00949   0.00000  -0.01061  -0.01061   2.08771
    R3        2.09936  -0.01004   0.00000  -0.01125  -0.01125   2.08811
    R4        2.09924  -0.01004   0.00000  -0.01124  -0.01124   2.08799
    R5        2.89676  -0.00497   0.00000  -0.00602  -0.00602   2.89074
    R6        2.10103  -0.00875   0.00000  -0.00982  -0.00982   2.09121
    R7        2.10113  -0.00886   0.00000  -0.00995  -0.00995   2.09118
    R8        2.74476  -0.00811   0.00000  -0.00809  -0.00809   2.73667
    R9        2.10225  -0.00882   0.00000  -0.00991  -0.00991   2.09234
   R10        2.10242  -0.00864   0.00000  -0.00971  -0.00971   2.09270
   R11        2.57421   0.01651   0.00000   0.01274   0.01274   2.58695
   R12        1.95066  -0.01875   0.00000  -0.01715  -0.01715   1.93351
   R13        2.31382   0.05940   0.00000   0.02800   0.02800   2.34182
   R14        2.58289  -0.01820   0.00000  -0.01424  -0.01424   2.56865
   R15        3.53823  -0.11091   0.00000  -0.23356  -0.23356   3.30467
   R16        2.71611  -0.03069   0.00000  -0.03018  -0.03017   2.68594
   R17        2.65913  -0.01342   0.00000  -0.01214  -0.01215   2.64698
   R18        2.67248  -0.01541   0.00000  -0.01424  -0.01422   2.65826
   R19        2.71484   0.01183   0.00000   0.01132   0.01132   2.72616
   R20        2.63189  -0.00907   0.00000  -0.00730  -0.00732   2.62457
   R21        2.04734   0.00217   0.00000   0.00227   0.00227   2.04961
   R22        2.62529   0.00165   0.00000   0.00205   0.00204   2.62733
   R23        2.56237  -0.00642   0.00000  -0.00486  -0.00486   2.55752
   R24        2.63283  -0.00835   0.00000  -0.00676  -0.00676   2.62607
   R25        2.04582   0.00232   0.00000   0.00242   0.00242   2.04824
   R26        2.04576   0.00122   0.00000   0.00128   0.00128   2.04704
   R27        2.25768   0.07367   0.00000   0.03063   0.03063   2.28832
   R28        2.25489   0.04960   0.00000   0.02049   0.02049   2.27538
    A1        1.91267   0.00462   0.00000   0.00864   0.00862   1.92129
    A2        1.92550   0.00185   0.00000   0.00311   0.00310   1.92859
    A3        1.92607   0.00181   0.00000   0.00301   0.00300   1.92907
    A4        1.89654  -0.00280   0.00000  -0.00459  -0.00461   1.89193
    A5        1.89691  -0.00281   0.00000  -0.00464  -0.00466   1.89225
    A6        1.90567  -0.00283   0.00000  -0.00582  -0.00582   1.89985
    A7        1.94120   0.00091   0.00000   0.00203   0.00203   1.94323
    A8        1.90064   0.00095   0.00000   0.00265   0.00265   1.90329
    A9        1.90160   0.00090   0.00000   0.00253   0.00253   1.90413
   A10        1.91086  -0.00069   0.00000  -0.00147  -0.00147   1.90938
   A11        1.91054  -0.00069   0.00000  -0.00149  -0.00150   1.90904
   A12        1.89848  -0.00141   0.00000  -0.00437  -0.00438   1.89410
   A13        1.93747  -0.00431   0.00000  -0.00550  -0.00550   1.93197
   A14        1.90596   0.00184   0.00000   0.00291   0.00291   1.90887
   A15        1.90569   0.00161   0.00000   0.00259   0.00259   1.90828
   A16        1.90688   0.00182   0.00000   0.00319   0.00319   1.91007
   A17        1.90517   0.00228   0.00000   0.00429   0.00430   1.90947
   A18        1.90235  -0.00326   0.00000  -0.00758  -0.00758   1.89477
   A19        2.12584  -0.00351   0.00000  -0.00515  -0.00515   2.12070
   A20        2.08006   0.00417   0.00000   0.00688   0.00688   2.08694
   A21        2.07728  -0.00066   0.00000  -0.00174  -0.00174   2.07554
   A22        2.08830  -0.00738   0.00000  -0.00986  -0.00988   2.07842
   A23        2.08991  -0.04879   0.00000  -0.06567  -0.06568   2.02423
   A24        2.10422   0.05626   0.00000   0.07593   0.07592   2.18013
   A25        2.18460  -0.08298   0.00000  -0.11184  -0.11184   2.07276
   A26        2.18163  -0.01283   0.00000  -0.01673  -0.01674   2.16489
   A27        2.02748   0.00956   0.00000   0.01344   0.01342   2.04090
   A28        2.07402   0.00325   0.00000   0.00319   0.00319   2.07721
   A29        2.06224   0.01152   0.00000   0.01435   0.01437   2.07661
   A30        2.15706  -0.00299   0.00000  -0.00334  -0.00336   2.15370
   A31        2.06208  -0.00845   0.00000  -0.01072  -0.01074   2.05134
   A32        2.11901  -0.00992   0.00000  -0.01395  -0.01397   2.10504
   A33        2.09360  -0.00134   0.00000  -0.00424  -0.00424   2.08937
   A34        2.07016   0.01129   0.00000   0.01829   0.01830   2.08845
   A35        2.09409   0.00966   0.00000   0.01515   0.01513   2.10922
   A36        2.09489  -0.00273   0.00000  -0.00474  -0.00473   2.09016
   A37        2.09416  -0.00693   0.00000  -0.01040  -0.01039   2.08377
   A38        2.09625  -0.01087   0.00000  -0.01373  -0.01373   2.08252
   A39        2.09399   0.00546   0.00000   0.00691   0.00692   2.10091
   A40        2.09278   0.00542   0.00000   0.00684   0.00685   2.09962
   A41        2.11936  -0.00358   0.00000  -0.00486  -0.00484   2.11452
   A42        2.10865  -0.00358   0.00000  -0.00714  -0.00715   2.10150
   A43        2.05475   0.00717   0.00000   0.01203   0.01202   2.06677
   A44        2.09477  -0.02355   0.00000  -0.02809  -0.02900   2.06577
   A45        2.10294  -0.01553   0.00000  -0.01729  -0.01820   2.08475
   A46        2.06454   0.04271   0.00000   0.06129   0.06038   2.12493
    D1       -3.14128   0.00003   0.00000   0.00008   0.00008  -3.14120
    D2        1.03460  -0.00031   0.00000  -0.00111  -0.00111   1.03348
    D3       -1.03374   0.00033   0.00000   0.00117   0.00117  -1.03257
    D4        1.05441  -0.00057   0.00000  -0.00161  -0.00162   1.05279
    D5       -1.05290  -0.00090   0.00000  -0.00281  -0.00281  -1.05571
    D6       -3.12123  -0.00027   0.00000  -0.00053  -0.00053  -3.12176
    D7       -1.05298   0.00058   0.00000   0.00167   0.00168  -1.05131
    D8        3.12289   0.00025   0.00000   0.00048   0.00048   3.12338
    D9        1.05456   0.00089   0.00000   0.00275   0.00276   1.05732
   D10       -3.13741  -0.00018   0.00000  -0.00051  -0.00051  -3.13792
   D11        1.04229  -0.00092   0.00000  -0.00290  -0.00290   1.03939
   D12       -1.03622   0.00099   0.00000   0.00304   0.00304  -1.03318
   D13       -1.03613   0.00113   0.00000   0.00313   0.00313  -1.03300
   D14       -3.13961   0.00039   0.00000   0.00075   0.00075  -3.13887
   D15        1.06506   0.00230   0.00000   0.00669   0.00668   1.07175
   D16        1.04350  -0.00143   0.00000  -0.00398  -0.00398   1.03952
   D17       -1.05999  -0.00217   0.00000  -0.00637  -0.00636  -1.06635
   D18       -3.13850  -0.00025   0.00000  -0.00043  -0.00042  -3.13892
   D19        3.13933   0.00003   0.00000   0.00018   0.00018   3.13951
   D20        0.00203  -0.00000   0.00000   0.00006   0.00006   0.00210
   D21       -1.04092   0.00078   0.00000   0.00240   0.00240  -1.03852
   D22        2.10497   0.00075   0.00000   0.00228   0.00228   2.10725
   D23        1.03783  -0.00075   0.00000  -0.00236  -0.00236   1.03547
   D24       -2.09946  -0.00078   0.00000  -0.00248  -0.00248  -2.10194
   D25        0.02503  -0.00169   0.00000  -0.00541  -0.00533   0.01970
   D26        3.12496   0.00224   0.00000   0.00735   0.00726   3.13222
   D27       -3.12085  -0.00165   0.00000  -0.00527  -0.00519  -3.12604
   D28       -0.02093   0.00228   0.00000   0.00749   0.00741  -0.01352
   D29       -3.10482  -0.00168   0.00000  -0.00712  -0.00728  -3.11210
   D30       -0.00528   0.00070   0.00000   0.00363   0.00379  -0.00149
   D31        2.87920   0.00318   0.00000   0.01271   0.01271   2.89191
   D32       -0.27434   0.00072   0.00000   0.00334   0.00334  -0.27099
   D33        3.07173  -0.00193   0.00000  -0.00725  -0.00719   3.06455
   D34       -0.13571  -0.00075   0.00000  -0.00236  -0.00228  -0.13798
   D35       -0.05762   0.00054   0.00000   0.00229   0.00230  -0.05533
   D36        3.01812   0.00173   0.00000   0.00719   0.00721   3.02533
   D37       -3.08451   0.00129   0.00000   0.00521   0.00532  -3.07920
   D38        0.02568   0.00254   0.00000   0.00924   0.00930   0.03498
   D39        0.04591  -0.00113   0.00000  -0.00371  -0.00370   0.04221
   D40       -3.12708   0.00013   0.00000   0.00032   0.00028  -3.12680
   D41        0.03169  -0.00003   0.00000   0.00032   0.00036   0.03206
   D42        3.14124   0.00046   0.00000   0.00165   0.00166  -3.14029
   D43       -3.04769  -0.00131   0.00000  -0.00452  -0.00447  -3.05217
   D44        0.06185  -0.00081   0.00000  -0.00320  -0.00318   0.05867
   D45        3.02784  -0.01361   0.00000  -0.05014  -0.05017   2.97767
   D46       -0.33584   0.01079   0.00000   0.04083   0.04091  -0.29493
   D47       -0.17960  -0.01172   0.00000  -0.04436  -0.04444  -0.22404
   D48        2.73990   0.01268   0.00000   0.04661   0.04664   2.78655
   D49       -0.00595   0.00041   0.00000   0.00144   0.00145  -0.00449
   D50        3.12542   0.00083   0.00000   0.00274   0.00273   3.12815
   D51       -3.11655  -0.00061   0.00000  -0.00215  -0.00213  -3.11868
   D52        0.01481  -0.00020   0.00000  -0.00085  -0.00085   0.01396
   D53       -0.02166   0.00067   0.00000   0.00189   0.00187  -0.01979
   D54        3.13967   0.00013   0.00000   0.00005   0.00004   3.13971
   D55        3.13016   0.00022   0.00000   0.00057   0.00056   3.13072
   D56        0.00830  -0.00032   0.00000  -0.00128  -0.00127   0.00703
   D57        0.00812  -0.00067   0.00000  -0.00258  -0.00258   0.00554
   D58       -3.10238  -0.00096   0.00000  -0.00353  -0.00352  -3.10589
   D59        3.12999  -0.00013   0.00000  -0.00073  -0.00075   3.12925
   D60        0.01949  -0.00042   0.00000  -0.00169  -0.00168   0.01781
         Item               Value     Threshold  Converged?
 Maximum Force            0.110908     0.000450     NO 
 RMS     Force            0.018141     0.000300     NO 
 Maximum Displacement     0.342677     0.001800     NO 
 RMS     Displacement     0.099959     0.001200     NO 
 Predicted change in Energy=-4.997268D-02
 GradGradGradGradGradGradGradGradGradGradGradGradGradGradGradGradGradGrad

                          Input orientation:                          
 ---------------------------------------------------------------------
 Center     Atomic      Atomic             Coordinates (Angstroms)
 Number     Number       Type             X           Y           Z
 ---------------------------------------------------------------------
      1          6           0       -1.102031    2.243741    0.594550
      2          6           0        0.126584    1.640533   -0.084276
      3          6           0        1.402933    2.385138    0.311350
      4          7           0        2.557353    1.805459   -0.343260
      5          6           0        3.816889    2.304379   -0.146564
      6          8           0        3.972092    3.260890    0.625907
      7          7           0        4.819501    1.667645   -0.807589
      8          6           0        6.463240    2.216711   -0.573526
      9          6           0        7.612440    1.475455   -0.960931
     10          6           0        6.633661    3.478162    0.011047
     11          6           0        7.902881    4.020742    0.164746
     12          6           0        9.031409    3.323880   -0.252161
     13          6           0        8.883300    2.058732   -0.807691
     14          1           0       -2.010519    1.690976    0.295200
     15          1           0       -1.225375    3.302076    0.301812
     16          1           0       -0.004652    1.693501   -1.181809
     17          1           0        0.216263    0.577042    0.208160
     18          1           0        1.535256    2.329433    1.409223
     19          1           0        1.311308    3.449840    0.020884
     20          1           0        2.433918    1.006909   -0.970923
     21          1           0        5.765078    4.047615    0.323552
     22          9           0        8.046473    5.247673    0.717607
     23          7           0        7.556019    0.116207   -1.440949
     24          1           0       10.018160    3.755407   -0.130067
     25          8           0        8.561429   -0.371125   -1.907851
     26          8           0        6.565794   -0.540175   -1.244921
     27          1           0       -1.004740    2.186315    1.693679
     28          1           0        9.774556    1.514999   -1.096551
 ---------------------------------------------------------------------
                    Distance matrix (angstroms):
                    1          2          3          4          5
     1  C    0.000000
     2  C    1.527796   0.000000
     3  C    2.524884   1.529714   0.000000
     4  N    3.802982   2.450085   1.448181   0.000000
     5  C    4.974807   3.750057   2.458331   1.368956   0.000000
     6  O    5.175162   4.232949   2.732484   2.249233   1.239239
     7  N    6.112480   4.748409   3.666027   2.313419   1.359270
     8  C    7.654963   6.381580   5.139853   3.934222   2.682006
     9  C    8.885482   7.538821   6.403453   5.103364   3.969448
    10  C    7.855266   6.762250   5.352140   4.420379   3.055620
    11  C    9.188629   8.136228   6.704179   5.808633   4.442763
    12  C   10.225958   9.064091   7.706648   6.650360   5.314296
    13  C   10.085005   8.796493   7.570646   6.348027   5.115266
    14  H    1.104767   2.171118   3.483356   4.613696   5.876232
    15  H    1.104981   2.176599   2.783680   4.118861   5.159542
    16  H    2.159272   1.106619   2.165452   2.698068   4.006131
    17  H    2.159880   1.106604   2.165189   2.700699   4.009243
    18  H    2.761578   2.165521   1.107220   2.095335   2.761693
    19  H    2.758255   2.165231   1.107410   2.095046   2.760083
    20  H    4.059975   2.551747   2.146315   1.023171   2.067753
    21  H    7.105250   6.144346   4.668221   3.970063   2.656185
    22  F    9.629843   8.739515   7.245397   6.565418   5.224859
    23  N    9.145025   7.704585   6.788156   5.389355   4.521572
    24  H   11.245837  10.115240   8.734679   7.714362   6.368792
    25  O   10.319011   8.861084   7.985356   6.575286   5.724606
    26  O    8.362379   6.896812   6.134702   4.731024   4.105405
    27  H    1.104919   2.176901   2.783388   4.121005   5.162222
    28  H   11.031366   9.701744   8.533663   7.262220   6.084357
                    6          7          8          9         10
     6  O    0.000000
     7  N    2.304657   0.000000
     8  C    2.955464   1.748754   0.000000
     9  C    4.354075   2.803741   1.421339   0.000000
    10  C    2.740294   2.690597   1.400724   2.431787   0.000000
    11  C    4.030031   3.998717   2.423250   2.798212   1.388861
    12  C    5.135334   4.559800   2.815064   2.435672   2.417080
    13  C    5.255506   4.082574   2.436489   1.406691   2.783161
    14  H    6.193999   6.918515   8.534382   9.706990   8.831570
    15  H    5.207725   6.359455   7.814029   9.112522   7.866385
    16  H    4.641017   4.838715   6.517468   7.623414   6.976756
    17  H    4.635063   4.838487   6.505711   7.541708   7.045449
    18  H    2.723851   4.017273   5.313100   6.578684   5.410010
    19  H    2.735238   4.021195   5.330698   6.675810   5.322438
    20  H    3.161689   2.480777   4.225752   5.199685   4.970834
    21  H    1.981199   2.799617   2.155085   3.417405   1.084608
    22  F    4.533905   5.055312   3.655186   4.151567   2.372011
    23  N    5.196677   3.208837   2.521647   1.442621   3.776477
    24  H    6.113181   5.643035   3.898935   3.417017   3.398766
    25  O    6.377576   4.401044   3.588832   2.281906   4.713329
    26  O    4.967432   2.848731   2.839315   2.288860   4.210593
    27  H    5.202279   6.359806   7.804606   9.044781   7.927502
    28  H    6.299491   4.965821   3.425021   2.166726   3.866006
                   11         12         13         14         15
    11  C    0.000000
    12  C    1.390325   0.000000
    13  C    2.399237   1.389657   0.000000
    14  H   10.184317  11.175425  10.955678   0.000000
    15  H    9.157529  10.271756  10.245107   1.792244   0.000000
    16  H    8.352146   9.228910   8.903317   2.490996   2.505755
    17  H    8.422888   9.244663   8.851265   2.491381   3.084299
    18  H    6.704916   7.742185   7.679957   3.771099   3.129453
    19  H    6.617814   7.725955   7.743176   3.768738   2.556466
    20  H    6.346848   7.029356   6.536627   4.671620   4.503119
    21  H    2.143862   3.394725   3.867645   8.124928   7.030130
    22  F    1.353379   2.368867   3.632652  10.675748   9.482901
    23  N    4.236031   3.725474   2.436410   9.849505   9.502624
    24  H    2.152144   1.083882   2.150764  12.211955  11.260955
    25  O    4.900800   4.076181   2.686663  10.994170  10.684407
    26  O    4.957512   4.689962   3.509462   8.994617   8.823695
    27  H    9.222173  10.286137  10.200317   1.792399   1.797470
    28  H    3.372356   2.130096   1.083247  11.868274  11.231543
                   16         17         18         19         20
    16  H    0.000000
    17  H    1.796468   0.000000
    18  H    3.080450   2.500634   0.000000
    19  H    2.502588   3.080124   1.798040   0.000000
    20  H    2.542147   2.548140   2.867361   2.865632   0.000000
    21  H    6.410753   6.545803   4.692784   4.503888   4.692353
    22  F    9.003363   9.131622   7.168710   7.005718   7.234361
    23  N    7.727791   7.536839   7.019361   7.228173   5.220171
    24  H   10.286612  10.309878   8.738563   8.713520   8.110610
    25  O    8.841242   8.661311   8.225758   8.419267   6.350055
    26  O    6.940033   6.608794   6.370671   6.718044   4.420514
    27  H    3.084067   2.507463   2.559878   3.123910   4.507269
    28  H    9.781209   9.692420   8.650334   8.753219   7.359273
                   21         22         23         24         25
    21  H    0.000000
    22  F    2.607716   0.000000
    23  N    4.666573   5.588547   0.000000
    24  H    4.287175   2.613993   4.585229   0.000000
    25  O    5.685421   6.223271   1.210925   4.723436   0.000000
    26  O    4.914171   6.288331   1.204080   5.622611   2.109647
    27  H    7.153469   9.604639   9.348680  11.282394  10.536750
    28  H    4.950430   4.495586   2.645211   2.452113   2.384817
                   26         27         28
    26  O    0.000000
    27  H    8.566335   0.000000
    28  H    3.813386  11.154787   0.000000
 Stoichiometry    C10H11FN3O3(1-)
 Framework group  C1[X(C10H11FN3O3)]
 Deg. of freedom    78
 Full point group                 C1      NOp   1
 Largest Abelian subgroup         C1      NOp   1
 Largest concise Abelian subgroup C1      NOp   1
                         Standard orientation:                         
 ---------------------------------------------------------------------
 Center     Atomic      Atomic             Coordinates (Angstroms)
 Number     Number       Type             X           Y           Z
 ---------------------------------------------------------------------
      1          6           0       -6.455632    0.180524    0.109677
      2          6           0       -5.157833   -0.587116   -0.136506
      3          6           0       -3.934329    0.308132    0.067437
      4          7           0       -2.712978   -0.431604   -0.174059
      5          6           0       -1.483627    0.158960   -0.055850
      6          8           0       -1.417024    1.348297    0.285843
      7          7           0       -0.412460   -0.642313   -0.297050
      8          6           0        1.194231    0.025797   -0.122949
      9          6           0        2.378654   -0.757174   -0.057360
     10          6           0        1.298838    1.421673   -0.071813
     11          6           0        2.542967    2.035792   -0.009061
     12          6           0        3.710443    1.281043    0.009784
     13          6           0        3.624585   -0.105804   -0.010990
     14          1           0       -7.324497   -0.484596   -0.042637
     15          1           0       -6.540730    1.031305   -0.590260
     16          1           0       -5.159598   -0.976827   -1.172232
     17          1           0       -5.106149   -1.444220    0.561545
     18          1           0       -3.931533    0.695513    1.104676
     19          1           0       -3.988172    1.167040   -0.629511
     20          1           0       -2.764503   -1.417467   -0.442941
     21          1           0        0.401355    2.029665   -0.107077
     22          9           0        2.624537    3.386307    0.023945
     23          7           0        2.374738   -2.196636    0.037971
     24          1           0        4.677412    1.768418    0.057095
     25          8           0        3.426416   -2.784121   -0.085216
     26          8           0        1.366431   -2.765189    0.369442
     27          1           0       -6.487779    0.565288    1.144940
     28          1           0        4.541896   -0.679874    0.038092
 ---------------------------------------------------------------------
 Rotational constants (GHZ):      0.7184304      0.2120122      0.1649059
 Basis read from rwf:  (6D, 7F)
 There are   345 symmetry adapted cartesian basis functions of A   symmetry.
 There are   345 symmetry adapted basis functions of A   symmetry.
   345 basis functions,   588 primitive gaussians,   345 cartesian basis functions
    63 alpha electrons       63 beta electrons
       nuclear repulsion energy      1142.9776404399 Hartrees.
 NAtoms=   28 NActive=   28 NUniq=   28 SFac= 1.00D+00 NAtFMM=   60 NAOKFM=F Big=F
 Integral buffers will be    131072 words long.
 Raffenetti 2 integral format.
 Two-electron integral symmetry is turned on.
 One-electron integrals computed using PRISM.
 NBasis=   345 RedAO= T EigKep=  1.19D-06  NBF=   345
 NBsUse=   345 1.00D-06 EigRej= -1.00D+00 NBFU=   345
 Initial guess from the checkpoint file:  "2Nitro4Fluro_a1.M062X_6-31pGd_opt.chk"
 B after Tr=    -0.000000   -0.000000    0.000000
         Rot=    0.999986    0.000743    0.000108   -0.005295 Ang=   0.61 deg.
 ExpMin= 4.38D-02 ExpMax= 7.00D+03 ExpMxC= 1.05D+03 IAcc=2 IRadAn=         4 AccDes= 0.00D+00
 Harris functional with IExCor= 1009 and IRadAn=       4 diagonalized for initial guess.
 HarFok:  IExCor= 1009 AccDes= 0.00D+00 IRadAn=         4 IDoV= 1 UseB2=F ITyADJ=14
 ICtDFT=  3500011 ScaDFX=  1.000000  1.000000  1.000000  1.000000
 FoFCou: FMM=F IPFlag=           0 FMFlag=      100000 FMFlg1=           0
         NFxFlg=           0 DoJE=T BraDBF=F KetDBF=T FulRan=T
         wScrn=  0.000000 ICntrl=     500 IOpCl=  0 I1Cent=   200000004 NGrid=           0
         NMat0=    1 NMatS0=      1 NMatT0=    0 NMatD0=    1 NMtDS0=    0 NMtDT0=    0
 Petite list used in FoFCou.
 Requested convergence on RMS density matrix=1.00D-08 within 128 cycles.
 Requested convergence on MAX density matrix=1.00D-06.
 Requested convergence on             energy=1.00D-06.
 No special actions if energy rises.
 SCF Done:  E(RM062X) =  -877.038577314     A.U. after   16 cycles
            NFock= 16  Conv=0.88D-08     -V/T= 2.0086
 Calling FoFJK, ICntrl=      2127 FMM=F ISym2X=0 I1Cent= 0 IOpClX= 0 NMat=1 NMatS=1 NMatT=0.
 ***** Axes restored to original set *****
 -------------------------------------------------------------------
 Center     Atomic                   Forces (Hartrees/Bohr)
 Number     Number              X              Y              Z
 -------------------------------------------------------------------
[...]
 0131192,-0.00142446,0.08101192,-0.00006424,-0.00006161,-0.00011552,-0.
 00007066,0.00000559,0.00021067,0.00086929,-0.00041073,-0.00044020,-0.0
 0277105,-0.00006380,-0.00033291,0.00633238,-0.00266762,-0.00207028,-0.
 00181488,0.00245225,0.00141497,-0.00587261,-0.00277979,0.00062180,-0.0
 0050905,0.01095005,0.00100064,0.00021947,-0.00551165,-0.00134015,-0.01
 591050,-0.03787453,-0.00989137,-0.04183536,-0.28330209,-0.06040132,-0.
 00950760,-0.04548907,-0.01312821,0.00660412,0.00044673,-0.00338240,-0.
 00012879,0.00000050,-0.00001398,0.00001081,0.00005119,0.00003706,0.000
 03029,0.00000949,-0.00002168,-0.00000083,0.00000591,-0.00001366,-0.000
 27707,-0.00008246,0.00025169,0.00005587,0.00008753,0.00003039,0.000309
 41,0.00010257,0.00019460,0.00147723,0.00085361,0.00150705,0.06245087,0
 .36185608,-0.00000848,-0.00001107,-0.00001956,-0.00001028,-0.00000058,
 0.00003026,0.00017651,-0.00008998,-0.00004211,-0.00048269,0.00006211,0
 .00002860,0.00119414,-0.00062693,-0.00010641,-0.00031064,0.00058138,0.
 00043177,-0.00112472,0.00043611,-0.00150073,0.00314101,-0.00113442,0.0
 0951073,-0.00092353,-0.00090158,-0.00088672,-0.00200840,-0.00243658,0.
 00809384,-0.00329150,-0.06014627,-0.05997210,-0.00408708,-0.02167555,0
 .00164133,0.00465252,-0.00130577,0.00462391,-0.00002133,0.00000096,-0.
 00000194,0.00000035,0.00001277,0.00000605,0.00000715,-0.00000210,-0.00
 000094,0.00000199,0.00000604,-0.00000008,-0.00006203,-0.00002404,0.000
 05418,0.00000287,0.00001470,-0.00000203,0.00008479,0.00001899,-0.00006
 628,-0.00137075,0.00173110,-0.00515584,0.00589959,0.08423708,0.0471673
 8,-0.00000244,-0.00000430,0.00001261,0.00001003,0.00010217,0.00000314,
 -0.00015391,-0.00020720,0.00016118,-0.00101693,-0.00041390,-0.00012932
 ,0.00160477,-0.00137565,0.00144307,0.00007605,-0.00105385,-0.00147193,
 -0.00771157,-0.00591264,-0.00189130,0.02815191,0.02831515,0.00035080,-
 0.11864507,0.00820653,0.00722155,-0.00613453,0.00116915,0.00476112,0.0
 0007380,0.00013648,-0.00035712,-0.00901896,0.00009981,0.00473164,0.000
 89861,-0.03954108,-0.01099874,0.00004867,0.00000681,0.00001629,0.00000
 531,-0.00003197,-0.00002380,0.00002718,-0.00003661,0.00003514,-0.00003
 505,-0.00005045,-0.00003535,-0.00013043,0.00001980,0.00012665,0.000106
 19,-0.00006423,-0.00004935,-0.00080196,0.00045077,-0.00018428,0.000976
 23,0.00168903,-0.00008857,0.00009963,0.00099477,-0.00019144,0.62947516
 ,-0.00018945,-0.00012104,-0.00025557,-0.00014064,0.00033518,0.00057430
 ,0.00207010,-0.00128622,-0.00072167,-0.00923787,-0.00100998,-0.0021186
 9,0.01933540,-0.01093645,-0.00295628,-0.00309148,0.00530230,0.00153370
 ,-0.03510995,-0.00891207,0.00256842,0.03511780,-0.01106045,-0.01334827
 ,0.00484940,-0.13427208,-0.01558351,-0.00539668,-0.01091487,-0.0018280
 2,0.02308209,-0.00911649,-0.00615636,-0.00779250,0.02758257,0.00813225
 ,-0.03676243,-0.04968240,0.00613760,-0.00027275,0.00001832,-0.00002789
 ,0.00006612,-0.00000720,0.00001593,0.00011669,0.00001780,0.00002755,-0
 .00007317,-0.00022387,-0.00010842,-0.00093516,-0.00016141,0.00085576,0
 .00032740,0.00009936,-0.00000156,-0.00039025,0.00094370,0.00064365,-0.
 00057701,-0.00031634,-0.00056334,0.00017968,0.00677871,0.00178709,0.10
 445895,0.69984061,-0.00007280,-0.00004174,-0.00010479,-0.00002415,0.00
 000855,0.00021122,0.00092679,-0.00037616,-0.00014524,-0.00245217,0.000
 02015,-0.00059602,0.00670264,-0.00185317,-0.00200779,-0.00154204,0.003
 04325,0.00175300,-0.00620551,0.00608116,-0.00349227,-0.00438562,-0.011
 38923,-0.00497671,0.00632830,-0.01329498,-0.08459867,0.00280153,-0.004
 21530,0.00550753,0.00350194,-0.00216010,-0.00140341,0.00364323,0.00462
 357,0.00798072,-0.01380340,-0.00557116,-0.00215113,-0.00015775,0.,-0.0
 0003112,0.00002524,0.00002516,0.00002933,0.00000409,0.00006563,-0.0000
 4430,-0.00000278,-0.00004774,-0.00000082,-0.00023055,-0.00005603,0.000
 15795,0.00003071,0.00009573,0.00003867,0.00075863,-0.00019329,0.000424
 88,-0.00059760,-0.00027966,-0.00054383,0.00029782,0.00169897,-0.000872
 86,-0.35366163,0.01578275,0.62295734,-0.00000554,-0.00000339,-0.000010
 20,-0.00000227,-0.00000173,0.00001732,0.00007329,-0.00002937,-0.000040
 72,-0.00023051,-0.00009615,-0.00005227,0.00029725,0.00037969,0.0000932
 0,-0.00044051,-0.00024517,0.00001325,-0.00008163,-0.00019784,-0.000092
 09,0.00035237,0.00098172,-0.00002638,0.00229819,-0.00024758,0.00061338
 ,-0.00160302,0.00399909,0.00220832,-0.01761437,-0.01451679,-0.00025413
 ,-0.30806905,-0.10325750,0.02898277,-0.00042714,-0.00019565,0.00017478
 ,-0.00001307,-0.00000032,-0.00000234,0.00000243,0.00000263,0.00000272,
 0.00000248,0.00000237,-0.00000107,-0.00000298,-0.00000359,-0.00000323,
 -0.00002178,-0.00000606,0.00002108,0.00001761,0.00000611,0.00000170,0.
 00000572,-0.00000348,0.00002223,-0.00047611,-0.00068964,0.00010880,0.0
 0201728,0.00054302,-0.00102073,0.00003021,0.00003983,0.00048364,0.3236
 9134,0.00000077,0.00000106,0.00000097,-0.00000221,0.00000063,-0.000001
 86,-0.00000360,0.00000667,-0.00000032,0.00003827,0.00006920,0.00002255
 ,-0.00004861,-0.00025100,-0.00008024,0.00019885,0.00022246,0.00005961,
 -0.00004701,0.00030826,0.00014321,0.00019712,-0.00124105,-0.00002962,0
 .00095960,-0.00393073,-0.00333447,0.00250621,-0.00202406,-0.00209113,0
 .01675065,0.00977681,-0.00109897,-0.10482195,-0.09651505,0.00091181,-0
 .02851415,-0.00604346,0.00397944,0.00000078,0.00000003,-0.00000002,-0.
 00000077,0.00000076,-0.00000004,-0.00000026,-0.00000075,0.00000040,0.0
 0000217,0.00000261,0.00000161,0.00000307,-0.00000358,-0.00000299,-0.00
 000807,0.00000081,-0.00000027,0.00002172,0.00000170,-0.00001535,0.0005
 2825,0.00056958,-0.00024487,-0.00097236,0.00172724,0.00173134,-0.00182
 969,0.00088933,0.00002242,0.11388530,0.09692095,-0.00000193,-0.0000017
 3,-0.00000311,0.00000156,-0.00000286,0.00000515,0.00000301,-0.00002428
 ,0.00000647,-0.00007453,-0.00001398,0.00007562,0.00028700,-0.00030034,
 -0.00032060,-0.00002784,0.00024785,0.00000254,-0.00062888,0.00009450,-
 0.00001991,0.00045780,-0.00007507,-0.00149456,0.00103142,-0.00147619,0
 .00553897,0.00149018,-0.00294851,0.00237374,0.00937501,0.00534387,0.00
 116875,0.02830082,0.00054668,-0.02965269,-0.00788836,-0.00161056,0.001
 43045,-0.00000347,-0.00000019,-0.00000063,0.00000105,-0.00000049,0.000
 00118,-0.00000088,0.00000234,-0.00000307,-0.00000086,-0.00000291,-0.00
 000159,-0.00000877,0.00001220,0.00000262,0.00000469,0.00000453,0.00000
 651,0.00000291,-0.00000749,0.00003815,0.00054485,0.00001232,0.00098860
 ,-0.00151254,0.00145920,-0.00287093,-0.00003890,-0.00150589,0.00171697
 ,-0.02995942,-0.00150124,0.02569859,-0.00004135,-0.00002802,-0.0000686
 6,-0.00002850,0.00001754,0.00013187,0.00062490,-0.00023494,-0.00018990
 ,-0.00164821,0.00005235,-0.00048218,0.00416524,-0.00262638,-0.00111163
 ,-0.00066717,0.00182229,0.00088834,-0.00417875,0.00157434,-0.00046625,
 0.00182391,-0.00090852,-0.00012990,0.01560412,0.02345714,0.01632965,-0
 .00041683,-0.00201582,-0.00126989,0.00407188,-0.00252403,-0.00093487,0
 .00170768,0.00583372,0.00063885,-0.01218945,-0.00934917,0.00160497,-0.
 00009803,-0.00000024,-0.00001826,0.00001201,0.00002181,0.00002023,0.00
 001349,0.00002577,-0.00001684,0.00000372,-0.00001805,-0.00000314,-0.00
 016674,-0.00005137,0.00013264,0.00001581,0.00005791,0.00002081,0.00032
 641,-0.00006889,0.00027189,-0.00021315,-0.00013398,0.00007771,0.000405
 76,0.00100424,0.00019801,-0.22913297,0.08067762,0.17653530,-0.00011612
 ,0.00040606,-0.00042853,0.26020749,0.00007331,0.00004329,0.00010314,0.
 00005075,-0.00009794,-0.00021805,-0.00083655,0.00043014,0.00030763,0.0
 0320074,0.00031941,0.00072138,-0.00656308,0.00303953,0.00133467,0.0013
 9001,-0.00174908,-0.00078825,0.00931437,0.00151611,-0.00018643,-0.0148
 7114,-0.00545044,-0.00146038,0.02604272,-0.03442861,-0.04247889,0.0033
 0970,0.00059383,0.00051732,-0.00327149,0.00232806,0.00166683,0.0020124
 3,-0.00493809,-0.00106691,0.00466974,0.00034665,-0.00554936,0.00012473
 ,-0.00000538,0.00001818,-0.00002604,-0.00000474,-0.00001278,-0.0000344
 2,-0.00002092,0.00000112,0.00002096,0.00007703,0.00003208,0.00031290,0
 .00006933,-0.00028203,-0.00010524,-0.00005487,-0.00000981,-0.00010886,
 -0.00019016,-0.00030336,-0.00033596,-0.00061696,-0.00000212,-0.0005056
 8,-0.00260500,-0.00079222,0.08925297,-0.20645419,-0.12777016,-0.000181
 20,-0.00028157,0.00006428,-0.09402035,0.20171024,0.00006497,0.00003698
 ,0.00009178,0.00003488,-0.00003997,-0.00019637,-0.00074916,0.00030938,
 0.00021509,0.00220147,-0.00002013,0.00063940,-0.00541631,0.00199016,0.
 00037246,0.00134670,-0.00205865,-0.00092881,0.00576532,-0.00179308,0.0
 0227161,-0.00629225,-0.00214686,0.00265777,0.01748518,-0.03791511,-0.0
 0724197,0.00127637,0.00065360,-0.00136966,-0.00223545,0.00206985,0.000
 73432,0.00003197,-0.00446913,-0.00124085,0.00762164,0.00572442,-0.0017
 2513,0.00012721,-0.00000135,0.00002132,-0.00002157,-0.00001515,-0.0000
 1982,-0.00001129,-0.00004913,0.00002827,0.00000711,0.00005214,0.000006
 02,0.00019779,0.00006183,-0.00015418,-0.00004186,-0.00006993,-0.000020
 86,-0.00049085,0.00006699,-0.00039047,-0.00013615,-0.00040401,0.000019
 42,-0.00047920,-0.00170275,-0.00009121,0.18052027,-0.12919835,-0.30576
 380,-0.00010294,-0.00014255,0.00001023,-0.27282634,0.15684146,0.369363
 82,0.00002649,0.00002543,0.00002046,0.00000053,-0.00012763,-0.00007842
 ,-0.00019187,0.00034579,-0.00008616,0.00196935,0.00031685,0.00037778,-
 0.00295993,0.00343136,-0.00059115,-0.00004225,-0.00001604,0.00126110,0
 .00670616,0.01219692,0.00117287,-0.01731139,-0.00556732,0.00213842,0.0
 0016402,-0.04425000,0.00945169,0.00376301,0.00456939,-0.00125594,-0.00
 770100,0.00238615,0.00211609,0.00303112,-0.00672806,-0.00415565,0.0063
 6215,0.00642732,0.00032538,0.00000330,-0.00000722,-0.00000591,-0.00001
 276,0.00002360,0.00001425,-0.00003068,0.00001833,-0.00002161,0.0000321
 1,0.00006776,0.00003427,0.00021345,-0.00000066,-0.00018690,-0.00009738
 ,0.00003071,0.00003328,0.00062545,-0.00053800,-0.00004636,-0.00013425,
 -0.00021837,0.00031464,0.00041068,-0.00148279,-0.00017767,-0.28581045,
 -0.17356101,0.17814400,-0.00002923,-0.00006193,-0.00001383,-0.04323941
 ,-0.01811896,0.07402544,0.33346310,0.00007514,0.00004574,0.00009831,0.
 00006596,-0.00015905,-0.00022078,-0.00066078,0.00049547,0.00037757,0.0
 0375480,0.00064503,0.00076784,-0.00765051,0.00225616,0.00276984,0.0014
 3773,-0.00124156,-0.00126207,0.01636182,-0.00318022,-0.00272580,-0.011
 95571,-0.00303437,0.00323410,-0.04392128,-0.04385897,0.02140585,0.0034
 3709,0.00457442,0.00070449,-0.00799243,0.00348002,0.00247059,0.0003473
 9,-0.00749128,-0.00363364,0.00979299,-0.00025413,-0.00306748,0.0000845
 2,-0.00000953,0.00000271,-0.00002697,0.00001690,0.00000299,-0.00005255
 ,0.00001210,-0.00002753,0.00004229,0.00010511,0.00006103,0.00037375,0.
 00004427,-0.00036717,-0.00017152,-0.00002350,0.00000167,0.00042719,-0.
 00056385,-0.00022537,0.00001645,-0.00004513,0.00028600,0.00012522,-0.0
 0262514,-0.00077257,-0.18392176,-0.29786622,0.13407888,-0.00016711,-0.
 00090505,-0.00005504,-0.00117785,0.04981659,0.01339224,0.22109304,0.29
 954344,0.00000135,0.00000260,-0.00000525,-0.00001813,0.00002830,0.0000
 1775,0.00000158,-0.00003085,-0.00008300,-0.00042126,-0.00002962,0.0000
 7159,0.00035808,-0.00071963,0.00036630,0.00002773,-0.00019745,-0.00033
 452,-0.00350833,-0.00402800,0.00163958,0.00659672,0.00017798,-0.002119
 14,0.00994319,0.01513983,0.01611499,-0.00094943,-0.00058438,-0.0002306
 4,0.00224579,-0.00082572,-0.00024642,-0.00121122,0.00163033,0.00025346
 ,-0.00074768,-0.00146919,0.00428701,0.00001799,0.00000194,0.00000945,-
 0.00000266,-0.00000669,-0.00000639,0.00001992,-0.00002527,0.00002474,-
 0.00000365,-0.00000359,-0.00001723,-0.00008375,-0.00002144,0.00009530,
 0.00002024,-0.00001529,-0.00000599,-0.00021094,0.00019133,-0.00020200,
 0.00004842,0.00001981,-0.00009723,-0.00024987,0.00041728,0.00018525,0.
 17057687,0.13757830,-0.22973756,-0.00015148,0.00028840,-0.00068873,0.0
 8267937,0.02122063,-0.05698673,-0.26395361,-0.16851497,0.26809739,-0.0
 5050678,-0.01678166,0.02056363,-0.00283646,-0.01928424,0.02325197,0.00
 107300,-0.00112447,0.00200513,-0.00001532,0.00051685,-0.00088840,0.000
 04225,-0.00001461,-0.00007451,0.00002916,-0.00001361,-0.00005071,0.000
 08159,0.00000987,0.00000542,-0.00002108,-0.00002378,0.00001938,0.00001
 017,0.00000283,-0.00000731,0.00000767,0.00001219,0.00000302,-0.0000111
 7,-0.00000656,-0.00000495,0.00000541,0.00000110,-0.00000104,-0.0000016
 7,-0.00000324,-0.00000350,0.00325672,0.01743029,-0.02022578,-0.0011420
 2,-0.00036999,0.00009153,-0.00506261,0.00162686,0.00244751,0.00126209,
 0.00021935,-0.00066869,-0.00039574,0.00051705,-0.00082176,-0.00007070,
 -0.00001812,-0.00012616,0.00004174,-0.00003553,0.00009990,-0.00000023,
 -0.00000244,0.00000619,0.00000288,0.00000729,0.00000002,-0.00001827,0.
 00000179,0.00002886,0.00000103,-0.00000016,0.00000121,0.00001177,-0.00
 000827,-0.00001916,0.00001013,0.00000804,-0.00001373,0.05424571,-0.017
 02783,-0.14709077,0.12649503,0.00049450,0.00485912,-0.00641886,0.00002
 560,-0.00005710,0.00016436,-0.00003400,-0.00002489,-0.00024640,0.00002
 683,0.00000596,-0.00004324,-0.00005295,0.00003135,-0.00004961,-0.00006
 955,-0.00000388,0.00000659,0.00003245,0.00000901,0.00001224,-0.0000096
 5,0.00000912,0.00000004,-0.00001155,-0.00001260,-0.00000319,0.00001360
 ,0.00000715,-0.00000287,-0.00000652,0.00000061,-0.00000006,0.00000097,
 0.00000296,-0.00000040,0.00124743,0.00276583,-0.00494215,-0.00257197,-
 0.01838217,0.02575263,0.00162306,0.00097751,-0.00087347,-0.00069676,0.
 00065170,-0.00015550,-0.00038734,0.00010532,-0.00012361,0.00003390,-0.
 00004456,0.00016359,0.00004293,-0.00000238,0.00004438,0.00000606,-0.00
 000084,0.00000672,-0.00000515,-0.00000681,-0.00000379,-0.00000073,-0.0
 0001271,0.00000256,-0.00000084,-0.00000054,0.00000163,-0.00000378,0.00
 000493,-0.00000086,-0.00000182,0.00000643,-0.00000648,0.01733348,0.156
 20218,0.02044944,0.12670149,-0.21273508,0.00204518,0.01040713,-0.01388
 016,-0.00134990,-0.00006113,0.00017045,0.00018995,-0.00024076,0.000475
 17,-0.00043867,-0.00009557,0.00012171,0.00013053,0.00003118,0.00002624
 ,0.00033386,-0.00001806,-0.00004183,-0.00021422,-0.00007276,-0.0000178
 8,0.00003922,-0.00006429,-0.00001627,0.00006881,0.00006909,0.00001477,
 -0.00008432,-0.00003084,0.00000928,0.00004076,-0.00001765,-0.00001247,
 0.00000390,0.00000647,-0.00000422,0.00247311,0.01209879,-0.01549594,-0
 .00133954,-0.00695661,0.00995305,0.00311594,-0.00161812,-0.00049596,-0
 .00042169,-0.00036451,0.00010235,0.00057056,0.00000642,0.00078491,-0.0
 0001061,-0.00011145,-0.00002094,-0.00000740,0.00006529,-0.00016371,-0.
 00001377,-0.00000455,-0.00000480,0.00001688,0.00003132,0.00000737,0.00
 001149,0.00010822,0.00001684,0.00000353,0.00000008,-0.00000111,0.00002
 070,-0.00003966,-0.00001877,-0.00001775,-0.00004875,0.00001328,-0.0256
 1861,-0.13978060,0.23121541,-0.00000809,-0.00000329,-0.00001130,-0.000
 01088,0.00000852,0.00002549,0.00003992,-0.00004909,-0.00005445,-0.0003
 0096,0.00003759,0.00004635,0.00007038,-0.00019423,-0.00034441,-0.00008
 704,0.00014714,0.00013914,-0.00139176,0.00092506,0.00063250,-0.0022846
 9,-0.00456318,0.00059296,-0.01660720,0.01924201,0.01010768,-0.00006393
 ,-0.00044540,-0.00037755,0.00070080,-0.00213074,0.00092549,0.00986974,
 -0.00574397,-0.00263171,-0.20870903,0.12674175,0.07302534,-0.00000993,
 0.00000073,-0.00000037,0.00000200,0.00000008,0.00000087,0.00000240,0.0
 0000184,-0.00000040,-0.00000178,-0.00000657,-0.00000280,-0.00002246,-0
 .00000447,0.00001986,0.00001108,0.00000670,0.00000212,0.00000974,0.000
 02050,0.00002157,0.00000315,0.00007519,-0.00000957,0.00036405,-0.00066
 361,-0.00026768,-0.00297121,0.00320748,0.00292328,0.00034412,0.0008119
 3,-0.00091277,0.00314248,-0.00078810,-0.00188380,0.00077955,0.00025507
 ,-0.00101152,0.00000075,-0.00000038,0.00000260,0.21712881,-0.00000003,
 0.00000023,0.00000011,-0.00000071,0.00000260,0.00000036,-0.00002201,-0
 .00000352,-0.00000449,0.00000175,0.00000543,0.00005287,-0.00028068,0.0
 0008788,-0.00002405,0.00003142,-0.00003681,-0.00002746,-0.00021463,0.0
 0033559,0.00017259,-0.00257541,-0.00038537,-0.00081379,-0.00724354,0.0
 0927330,0.00249844,-0.00064711,-0.00031425,0.00037467,-0.00313096,-0.0
 0275786,-0.00251020,0.02166756,-0.01184121,-0.00950532,0.13062904,-0.1
 6617674,-0.06245724,0.00000192,0.00000045,0.00000070,-0.00000012,-0.00
 000109,-0.00000084,-0.00000010,-0.00000092,0.00000057,-0.00000038,-0.0
 0000113,-0.00000042,0.00000205,0.00000141,-0.00000120,0.00000053,-0.00
 000029,-0.00000046,-0.00000970,0.00000569,-0.00000244,0.00007225,0.000
 00747,0.00004021,0.00110465,-0.00184714,-0.00069621,-0.00045835,0.0005
 4609,0.00169991,0.00000366,0.00069874,0.00173738,-0.00178939,-0.003397
 21,-0.00117205,-0.00025287,0.00021634,-0.00021816,-0.00000029,0.000000
 05,-0.00000016,-0.13688857,0.17558229,0.00000043,0.00000011,0.00000290
 ,0.00000193,-0.00000002,-0.00000353,-0.00001363,0.00000759,0.00001660,
 0.00004113,-0.00000150,-0.00004915,-0.00009389,0.00022933,-0.00001354,
 0.00000424,-0.00015274,-0.00000928,0.00030086,-0.00019520,-0.00004673,
 0.00096842,-0.00072407,0.00441851,0.00269104,-0.00131787,0.00414429,-0
 .00026557,0.00055995,-0.00084622,0.00027543,-0.00230605,0.00662002,0.0
 0456255,-0.00371872,0.00252315,0.07464348,-0.06240726,-0.07103627,0.00
 000174,-0.00000016,0.00000012,0.00000038,-0.00000161,-0.00000052,-0.00
 000108,0.00000158,-0.00000114,-0.00000096,-0.00000203,0.00000020,0.000
 00657,0.00000526,-0.00000846,0.00000037,-0.00000382,-0.00000010,-0.000
 01046,-0.00000104,0.00001114,-0.00000306,0.00001939,-0.00015223,0.0001
 6892,-0.00025831,-0.00019094,-0.00085010,-0.00137170,-0.00432410,-0.00
 102972,0.00138211,-0.00400761,-0.00160395,-0.00186833,-0.00028287,0.00
 116128,0.00126707,-0.00041528,0.00000054,0.00000132,-0.00000168,-0.080
 95690,0.07085669,0.06365273\\0.00000109,-0.00000165,-0.00000141,-0.000
 00132,-0.00000067,-0.00000107,0.00000204,-0.00000153,0.00000155,0.0000
 0235,0.00000497,-0.00000215,-0.00000008,-0.00000903,0.00000051,-0.0000
 0028,0.00000319,-0.00000022,-0.00000889,0.00000170,-0.00000167,0.00000
 256,0.00000289,0.00000206,0.00000228,0.00000165,-0.00000034,-0.0000007
 2,0.00000160,0.00000122,0.00000036,-0.00000065,0.00000024,-0.00000103,
 -0.00000124,0.00000043,0.00000146,-0.00000032,-0.00000090,-0.00000026,
 -0.00000143,-0.00000093,-0.00000027,-0.00000050,-0.00000076,0.00000029
 ,-0.00000018,-0.00000063,0.00000026,-0.00000082,-0.00000095,-0.0000008
 3,-0.00000140,0.,0.00000027,-0.00000098,-0.00000092,0.00000007,-0.0000
 0183,0.00000060,-0.00000027,0.00000001,0.00000053,0.00000017,0.0000018
 6,0.00000104,0.00000098,0.00000630,0.00000554,-0.00000095,0.00000316,0
 .00000189,0.00000231,-0.00000190,-0.00000405,-0.00000117,-0.00000248,0
 .00000012,-0.00000003,-0.00000149,-0.00000015,-0.00000039,0.00000077,0
 .00000043\\\@


 NOT WHAT WE DID SHALL BE THE TEST
 WHEN ACT AND WILL ARE DONE,
 BUT WHAT OUR LORD INFERS WE WOULD-
 HAD WE DIVINER BEEN.
           EMILY DICKINSON  POEMS NO. CLXXV
 Job cpu time:       0 days  2 hours 33 minutes  5.7 seconds.
 File lengths (MBytes):  RWF=    361 Int=      0 D2E=      0 Chk=     11 Scr=      1
 Normal termination of Gaussian 09 at Mon Feb  4 20:41:36 2019.
WARNING: pbs_rusage is deprecated and values produced may not be accurate


=============================================================================
                                     Resource usage:
                                       CPU time:              13:03:53
   JobId:    5375057.r-man2            Elapsed time:          03:17:38
   Project:             q95            Requested time:        34:00:00
   Service Units:     13.18 
                                       Max physical memory:      584MB
                                       Max virtual memory:      1119MB
                                       Requested memory:           0MB

                                       Number of cpus:               4

                                       Max jobfs disk use:       0.4GB
                                       Requested jobfs:         16.0GB
=============================================================================

