 Entering Gaussian System, Link 0=/apps/gaussian/g09e01/g09/g09
 AtFile(1): /home/507/hio507/Basis/6-31pGd.gbs
 Initial command:
 /apps/gaussian/g09e01/g09/l1.exe "/jobfs/local/5387203.r-man2/Gau-16322.inp" -scrdir="/jobfs/local/5387203.r-man2/"
 Entering Link 1 = /apps/gaussian/g09e01/g09/l1.exe PID=     16323.
  
 Copyright (c) 1988,1990,1992,1993,1995,1998,2003,2009,2015,
            Gaussian, Inc.  All Rights Reserved.
  
 This is part of the Gaussian(R) 09 program.  It is based on
 the Gaussian(R) 03 system (copyright 2003, Gaussian, Inc.),
 the Gaussian(R) 98 system (copyright 1998, Gaussian, Inc.),
 the Gaussian(R) 94 system (copyright 1995, Gaussian, Inc.),
 the Gaussian 92(TM) system (copyright 1992, Gaussian, Inc.),
 the Gaussian 90(TM) system (copyright 1990, Gaussian, Inc.),
 the Gaussian 88(TM) system (copyright 1988, Gaussian, Inc.),
 the Gaussian 86(TM) system (copyright 1986, Carnegie Mellon
 University), and the Gaussian 82(TM) system (copyright 1983,
 Carnegie Mellon University). Gaussian is a federally registered
 trademark of Gaussian, Inc.
  
 This software contains proprietary and confidential information,
 including trade secrets, belonging to Gaussian, Inc.
  
 This software is provided under written license and may be
 used, copied, transmitted, or stored only in accord with that
 written license.
  
 The following legend is applicable only to US Government
 contracts under FAR:
  
                    RESTRICTED RIGHTS LEGEND
  
 Use, reproduction and disclosure by the US Government is
 subject to restrictions as set forth in subparagraphs (a)
 and (c) of the Commercial Computer Software - Restricted
 Rights clause in FAR 52.227-19.
  
 Gaussian, Inc.
 340 Quinnipiac St., Bldg. 40, Wallingford CT 06492
  
  
 ---------------------------------------------------------------
 Warning -- This program may not be used in any manner that
 competes with the business of Gaussian, Inc. or will provide
 assistance to any competitor of Gaussian, Inc.  The licensee
 of this program is prohibited from giving any competitor of
 Gaussian, Inc. access to this program.  By using this program,
 the user acknowledges that Gaussian, Inc. is engaged in the
 business of creating and licensing software in the field of
 computational chemistry and represents and warrants to the
 licensee that it is not a competitor of Gaussian, Inc. and that
 it will not use this program in any manner prohibited above.
 ---------------------------------------------------------------
  

 Cite this work as:
 Gaussian 09, Revision E.01,
 M. J. Frisch, G. W. Trucks, H. B. Schlegel, G. E. Scuseria, 
 M. A. Robb, J. R. Cheeseman, G. Scalmani, V. Barone, B. Mennucci, 
 G. A. Petersson, H. Nakatsuji, M. Caricato, X. Li, H. P. Hratchian, 
 A. F. Izmaylov, J. Bloino, G. Zheng, J. L. Sonnenberg, M. Hada, 
 M. Ehara, K. Toyota, R. Fukuda, J. Hasegawa, M. Ishida, T. Nakajima, 
 Y. Honda, O. Kitao, H. Nakai, T. Vreven, J. A. Montgomery, Jr., 
 J. E. Peralta, F. Ogliaro, M. Bearpark, J. J. Heyd, E. Brothers, 
 K. N. Kudin, V. N. Staroverov, T. Keith, R. Kobayashi, J. Normand, 
 K. Raghavachari, A. Rendell, J. C. Burant, S. S. Iyengar, J. Tomasi, 
 M. Cossi, N. Rega, J. M. Millam, M. Klene, J. E. Knox, J. B. Cross, 
 V. Bakken, C. Adamo, J. Jaramillo, R. Gomperts, R. E. Stratmann, 
 O. Yazyev, A. J. Austin, R. Cammi, C. Pomelli, J. W. Ochterski, 
 R. L. Martin, K. Morokuma, V. G. Zakrzewski, G. A. Voth, 
 P. Salvador, J. J. Dannenberg, S. Dapprich, A. D. Daniels, 
 O. Farkas, J. B. Foresman, J. V. Ortiz, J. Cioslowski, 
 and D. J. Fox, Gaussian, Inc., Wallingford CT, 2013.
 
 ******************************************
 Gaussian 09:  ES64L-G09RevE.01 30-Nov-2015
                 5-Feb-2019 
 ******************************************
 %chk=3Nitro_a1.M062X_6-31pGd_opt_water.chk
 %mem=196608000
 %nproc=4
 Will use up to    4 processors via shared memory.
 ----------------------------------------------------------------------
 # M062X/Gen 6D SCF=Tight INT(grid=ultrafine) OPT IOP(2/17=4) SCRF=(SMD
 ,Solvent=h2o) maxdisk=2147483648
 ----------------------------------------------------------------------
 1/14=-1,18=20,19=15,26=4,38=1/1,3;
 2/9=110,12=2,17=4,18=5,40=1/2;
 3/5=7,8=2,11=2,16=1,25=1,30=1,70=32201,71=1,72=1,74=-55,75=-5/1,2,3;
 4//1;
 5/5=2,32=2,38=5,53=1/2;
 6/7=2,8=2,9=2,10=2,28=1/1;
 7//1,2,3,16;
 1/14=-1,18=20,19=15,26=4/3(2);
 2/9=110,17=4/2;
 99//99;
 2/9=110,17=4/2;
 3/5=7,6=1,8=2,11=2,16=1,25=1,30=1,70=32205,71=1,72=1,74=-55,75=-5,82=7/1,2,3;
 4/5=5,16=3,69=1/1;
 5/5=2,32=2,38=5,53=1/2;
 7//1,2,3,16;
 1/14=-1,18=20,19=15,26=4/3(-5);
 2/9=110,17=4/2;
 6/7=2,8=2,9=2,10=2,19=2,28=1/1;
 99/9=1/99;
 ---------------------------------
 3Nitro_a1.M062X_6-31pGd_opt_water
 ---------------------------------
 Symbolic Z-matrix:
 Charge = -1 Multiplicity = 1
 C                     11.97353   0.06998  -7.49641 
 C                     10.83008  -0.25856  -6.54596 
 C                     10.64751   0.85508  -5.51071 
 N                     9.55093   0.55191  -4.60726 
 C                     9.1949    1.39704  -3.59849 
 O                     9.81339   2.43842  -3.4477 
 N                     8.15231   1.06187  -2.77634 
 C                     7.62173   1.80675  -1.66366 
 C                     7.96558   3.14696  -1.35419 
 C                     6.69693   1.15408  -0.82704 
 C                     6.13409   1.80092   0.27198 
 C                     6.48078   3.11726   0.56408 
 C                     7.39918   3.80577  -0.24356 
 H                     12.07976  -0.7353   -8.25348 
 H                     12.92873   0.1694   -6.93796 
 H                     11.04765  -1.21964  -6.03103 
 H                     9.89579  -0.37028  -7.13739 
 H                     10.43453   1.81123  -6.0383 
 H                     11.58571   0.96659  -4.92319 
 H                     9.02679  -0.32841  -4.73335 
 H                     8.66277   3.70726  -1.9457 
 H                     6.40654   0.13011  -1.02734 
 H                     5.42483   1.27788   0.90068 
 N                     7.75184   5.15473   0.05953 
 H                     6.02894   3.59577   1.42336 
 O                     9.02262   5.56726  -0.04903 
 O                     6.82026   6.03252   0.45758 
 H                     11.7507   0.99748  -7.98117 
 

 GradGradGradGradGradGradGradGradGradGradGradGradGradGradGradGradGradGrad
 Berny optimization.
 Initialization pass.
                           ----------------------------
                           !    Initial Parameters    !
                           ! (Angstroms and Degrees)  !
 --------------------------                            --------------------------
 ! Name  Definition              Value          Derivative Info.                !
 --------------------------------------------------------------------------------
 ! R1    R(1,2)                  1.5228         estimate D2E/DX2                !
 ! R2    R(1,14)                 1.1104         estimate D2E/DX2                !
 ! R3    R(1,15)                 1.1109         estimate D2E/DX2                !
 ! R4    R(1,28)                 1.07           estimate D2E/DX2                !
 ! R5    R(2,3)                  1.5314         estimate D2E/DX2                !
 ! R6    R(2,16)                 1.1118         estimate D2E/DX2                !
 ! R7    R(2,17)                 1.1114         estimate D2E/DX2                !
 ! R8    R(3,4)                  1.4528         estimate D2E/DX2                !
 ! R9    R(3,18)                 1.1126         estimate D2E/DX2                !
 ! R10   R(3,19)                 1.1126         estimate D2E/DX2                !
 ! R11   R(4,5)                  1.3633         estimate D2E/DX2                !
 ! R12   R(4,20)                 1.0323         estimate D2E/DX2                !
 ! R13   R(5,6)                  1.2205         estimate D2E/DX2                !
 ! R14   R(5,7)                  1.3694         estimate D2E/DX2                !
 ! R15   R(7,8)                  1.4403         estimate D2E/DX2                !
 ! R16   R(8,9)                  1.4178         estimate D2E/DX2                !
 ! R17   R(8,10)                 1.4075         estimate D2E/DX2                !
 ! R18   R(9,13)                 1.4101         estimate D2E/DX2                !
 ! R19   R(9,21)                 1.0723         estimate D2E/DX2                !
 ! R20   R(10,11)                1.3939         estimate D2E/DX2                !
 ! R21   R(10,22)                1.083          estimate D2E/DX2                !
 ! R22   R(11,12)                1.3922         estimate D2E/DX2                !
 ! R23   R(11,23)                1.0825         estimate D2E/DX2                !
 ! R24   R(12,13)                1.4035         estimate D2E/DX2                !
 ! R25   R(12,25)                1.0824         estimate D2E/DX2                !
 ! R26   R(13,24)                1.4269         estimate D2E/DX2                !
 ! R27   R(24,26)                1.3405         estimate D2E/DX2                !
 ! R28   R(24,27)                1.3404         estimate D2E/DX2                !
 ! A1    A(2,1,14)             109.9339         estimate D2E/DX2                !
 ! A2    A(2,1,15)             110.5606         estimate D2E/DX2                !
 ! A3    A(2,1,28)             108.2653         estimate D2E/DX2                !
 ! A4    A(14,1,15)            108.989          estimate D2E/DX2                !
 ! A5    A(14,1,28)            109.8573         estimate D2E/DX2                !
 ! A6    A(15,1,28)            109.2219         estimate D2E/DX2                !
 ! A7    A(1,2,3)              110.7667         estimate D2E/DX2                !
 ! A8    A(1,2,16)             109.1858         estimate D2E/DX2                !
 ! A9    A(1,2,17)             108.7108         estimate D2E/DX2                !
 ! A10   A(3,2,16)             109.8062         estimate D2E/DX2                !
 ! A11   A(3,2,17)             109.4279         estimate D2E/DX2                !
 ! A12   A(16,2,17)            108.9094         estimate D2E/DX2                !
 ! A13   A(2,3,4)              111.0155         estimate D2E/DX2                !
 ! A14   A(2,3,18)             109.0984         estimate D2E/DX2                !
 ! A15   A(2,3,19)             109.2282         estimate D2E/DX2                !
 ! A16   A(4,3,18)             109.2522         estimate D2E/DX2                !
 ! A17   A(4,3,19)             109.2097         estimate D2E/DX2                !
 ! A18   A(18,3,19)            109.0074         estimate D2E/DX2                !
 ! A19   A(3,4,5)              121.8638         estimate D2E/DX2                !
 ! A20   A(3,4,20)             119.0293         estimate D2E/DX2                !
 ! A21   A(5,4,20)             119.1069         estimate D2E/DX2                !
 ! A22   A(4,5,6)              119.2087         estimate D2E/DX2                !
 ! A23   A(4,5,7)              119.4286         estimate D2E/DX2                !
 ! A24   A(6,5,7)              121.3627         estimate D2E/DX2                !
 ! A25   A(5,7,8)              128.1483         estimate D2E/DX2                !
 ! A26   A(7,8,9)              124.6217         estimate D2E/DX2                !
 ! A27   A(7,8,10)             117.4786         estimate D2E/DX2                !
 ! A28   A(9,8,10)             117.8997         estimate D2E/DX2                !
 ! A29   A(8,9,13)             121.0742         estimate D2E/DX2                !
 ! A30   A(8,9,21)             122.0857         estimate D2E/DX2                !
 ! A31   A(13,9,21)            116.8401         estimate D2E/DX2                !
 ! A32   A(8,10,11)            121.2488         estimate D2E/DX2                !
 ! A33   A(8,10,22)            120.308          estimate D2E/DX2                !
 ! A34   A(11,10,22)           118.4431         estimate D2E/DX2                !
 ! A35   A(10,11,12)           120.2399         estimate D2E/DX2                !
 ! A36   A(10,11,23)           119.8835         estimate D2E/DX2                !
 ! A37   A(12,11,23)           119.8766         estimate D2E/DX2                !
 ! A38   A(11,12,13)           120.401          estimate D2E/DX2                !
 ! A39   A(11,12,25)           118.7257         estimate D2E/DX2                !
 ! A40   A(13,12,25)           120.8733         estimate D2E/DX2                !
 ! A41   A(9,13,12)            119.1363         estimate D2E/DX2                !
 ! A42   A(9,13,24)            120.6462         estimate D2E/DX2                !
 ! A43   A(12,13,24)           120.2175         estimate D2E/DX2                !
 ! A44   A(13,24,26)           120.5344         estimate D2E/DX2                !
 ! A45   A(13,24,27)           120.6909         estimate D2E/DX2                !
 ! A46   A(26,24,27)           118.7747         estimate D2E/DX2                !
 ! D1    D(14,1,2,3)          -178.8076         estimate D2E/DX2                !
 ! D2    D(14,1,2,16)           60.1521         estimate D2E/DX2                !
 ! D3    D(14,1,2,17)          -58.5417         estimate D2E/DX2                !
 ! D4    D(15,1,2,3)            60.8144         estimate D2E/DX2                !
 ! D5    D(15,1,2,16)          -60.2259         estimate D2E/DX2                !
 ! D6    D(15,1,2,17)         -178.9197         estimate D2E/DX2                !
 ! D7    D(28,1,2,3)           -58.7946         estimate D2E/DX2                !
 ! D8    D(28,1,2,16)         -179.8349         estimate D2E/DX2                !
 ! D9    D(28,1,2,17)           61.4713         estimate D2E/DX2                !
 ! D10   D(1,2,3,4)            179.5593         estimate D2E/DX2                !
 ! D11   D(1,2,3,18)            59.1072         estimate D2E/DX2                !
 ! D12   D(1,2,3,19)           -59.9572         estimate D2E/DX2                !
 ! D13   D(16,2,3,4)           -59.7681         estimate D2E/DX2                !
 ! D14   D(16,2,3,18)          179.7799         estimate D2E/DX2                !
 ! D15   D(16,2,3,19)           60.7155         estimate D2E/DX2                !
 ! D16   D(17,2,3,4)            59.7219         estimate D2E/DX2                !
 ! D17   D(17,2,3,18)          -60.7302         estimate D2E/DX2                !
 ! D18   D(17,2,3,19)         -179.7946         estimate D2E/DX2                !
 ! D19   D(2,3,4,5)           -179.9468         estimate D2E/DX2                !
 ! D20   D(2,3,4,20)             0.0414         estimate D2E/DX2                !
 ! D21   D(18,3,4,5)           -59.5859         estimate D2E/DX2                !
 ! D22   D(18,3,4,20)          120.4023         estimate D2E/DX2                !
 ! D23   D(19,3,4,5)            59.5587         estimate D2E/DX2                !
 ! D24   D(19,3,4,20)         -120.453          estimate D2E/DX2                !
 ! D25   D(3,4,5,6)             -0.0129         estimate D2E/DX2                !
 ! D26   D(3,4,5,7)            179.9634         estimate D2E/DX2                !
 ! D27   D(20,4,5,6)           179.9988         estimate D2E/DX2                !
 ! D28   D(20,4,5,7)            -0.0248         estimate D2E/DX2                !
 ! D29   D(4,5,7,8)           -179.9922         estimate D2E/DX2                !
 ! D30   D(6,5,7,8)             -0.0164         estimate D2E/DX2                !
 ! D31   D(5,7,8,9)             10.6979         estimate D2E/DX2                !
 ! D32   D(5,7,8,10)          -169.2975         estimate D2E/DX2                !
 ! D33   D(7,8,9,13)           179.9978         estimate D2E/DX2                !
 ! D34   D(7,8,9,21)            -0.0175         estimate D2E/DX2                !
 ! D35   D(10,8,9,13)           -0.0068         estimate D2E/DX2                !
 ! D36   D(10,8,9,21)          179.978          estimate D2E/DX2                !
 ! D37   D(7,8,10,11)         -179.9918         estimate D2E/DX2                !
 ! D38   D(7,8,10,22)           -0.0019         estimate D2E/DX2                !
 ! D39   D(9,8,10,11)            0.0124         estimate D2E/DX2                !
 ! D40   D(9,8,10,22)         -179.9977         estimate D2E/DX2                !
 ! D41   D(8,9,13,12)           -0.0033         estimate D2E/DX2                !
 ! D42   D(8,9,13,24)          179.9958         estimate D2E/DX2                !
 ! D43   D(21,9,13,12)        -179.9888         estimate D2E/DX2                !
 ! D44   D(21,9,13,24)           0.0103         estimate D2E/DX2                !
 ! D45   D(8,10,11,12)          -0.0079         estimate D2E/DX2                !
 ! D46   D(8,10,11,23)         179.992          estimate D2E/DX2                !
 ! D47   D(22,10,11,12)       -179.998          estimate D2E/DX2                !
 ! D48   D(22,10,11,23)          0.0019         estimate D2E/DX2                !
 ! D49   D(10,11,12,13)         -0.0026         estimate D2E/DX2                !
 ! D50   D(10,11,12,25)       -179.9986         estimate D2E/DX2                !
 ! D51   D(23,11,12,13)        179.9975         estimate D2E/DX2                !
 ! D52   D(23,11,12,25)          0.0014         estimate D2E/DX2                !
 ! D53   D(11,12,13,9)           0.0081         estimate D2E/DX2                !
 ! D54   D(11,12,13,24)       -179.991          estimate D2E/DX2                !
 ! D55   D(25,12,13,9)        -179.996          estimate D2E/DX2                !
 ! D56   D(25,12,13,24)          0.0049         estimate D2E/DX2                !
 ! D57   D(9,13,24,26)         -40.9393         estimate D2E/DX2                !
 ! D58   D(9,13,24,27)         139.056          estimate D2E/DX2                !
 ! D59   D(12,13,24,26)        139.0598         estimate D2E/DX2                !
 ! D60   D(12,13,24,27)        -40.9449         estimate D2E/DX2                !
 --------------------------------------------------------------------------------
 Trust Radius=3.00D-01 FncErr=1.00D-07 GrdErr=1.00D-06
 Number of steps in this run=    144 maximum allowed number of steps=    168.
 GradGradGradGradGradGradGradGradGradGradGradGradGradGradGradGradGradGrad

                          Input orientation:                          
 ---------------------------------------------------------------------
 Center     Atomic      Atomic             Coordinates (Angstroms)
 Number     Number       Type             X           Y           Z
 ---------------------------------------------------------------------
      1          6           0       11.973530    0.069980   -7.496410
      2          6           0       10.830080   -0.258560   -6.545960
      3          6           0       10.647510    0.855080   -5.510710
      4          7           0        9.550930    0.551910   -4.607260
      5          6           0        9.194900    1.397040   -3.598490
      6          8           0        9.813390    2.438420   -3.447700
      7          7           0        8.152310    1.061870   -2.776340
      8          6           0        7.621730    1.806750   -1.663660
      9          6           0        7.965580    3.146960   -1.354190
     10          6           0        6.696930    1.154080   -0.827040
     11          6           0        6.134090    1.800920    0.271980
     12          6           0        6.480780    3.117260    0.564080
     13          6           0        7.399180    3.805770   -0.243560
     14          1           0       12.079760   -0.735300   -8.253480
     15          1           0       12.928730    0.169400   -6.937960
     16          1           0       11.047650   -1.219640   -6.031030
     17          1           0        9.895790   -0.370280   -7.137390
     18          1           0       10.434530    1.811230   -6.038300
     19          1           0       11.585710    0.966590   -4.923190
     20          1           0        9.026790   -0.328410   -4.733350
     21          1           0        8.662770    3.707260   -1.945700
     22          1           0        6.406540    0.130110   -1.027340
     23          1           0        5.424830    1.277880    0.900680
     24          7           0        7.751840    5.154730    0.059530
     25          1           0        6.028940    3.595770    1.423360
     26          8           0        9.022620    5.567260   -0.049030
     27          8           0        6.820260    6.032520    0.457580
     28          1           0       11.750700    0.997480   -7.981170
 ---------------------------------------------------------------------
                    Distance matrix (angstroms):
                    1          2          3          4          5
     1  C    0.000000
     2  C    1.522751   0.000000
     3  C    2.513507   1.531427   0.000000
     4  N    3.801110   2.460009   1.452798   0.000000
     5  C    4.967459   3.755317   2.461784   1.363312   0.000000
     6  O    5.164084   4.231616   2.731068   2.229884   1.220549
     7  N    6.153424   4.808744   3.707501   2.359760   1.369403
     8  C    7.481678   6.196440   4.986062   3.736471   2.527112
     9  C    7.953511   6.837938   5.451800   4.453098   3.100053
    10  C    8.573114   7.196147   6.134594   4.774724   3.738960
    11  C    9.871327   8.531007   7.396288   6.086198   4.950981
    12  C   10.218988   8.992510   7.705983   6.538318   5.258573
    13  C    9.353322   8.246824   6.855734   5.853162   4.503570
    14  H    1.110367   2.169010   3.478999   4.620261   5.876923
    15  H    1.110927   2.177417   2.776898   4.121651   5.157581
    16  H    2.160489   1.111829   2.176076   2.721338   4.024543
    17  H    2.154003   1.111381   2.170870   2.714944   4.017273
    18  H    2.743457   2.167535   1.112625   2.101074   2.767835
    19  H    2.752413   2.169182   1.112580   2.100500   2.766964
    20  H    4.059125   2.557790   2.152132   1.032272   2.072039
    21  H    7.416287   6.448826   4.978295   4.222436   2.889982
    22  H    8.534861   7.083356   6.213857   4.783402   3.998859
    23  H   10.717071   9.328978   8.280161   6.920198   5.871129
    24  N   10.038405   9.078093   7.609170   6.797176   5.439096
    25  H   11.284132  10.070594   8.770627   7.618259   6.330616
    26  O    9.715525   8.911632   7.394245   6.797816   5.478967
    27  O   11.197055  10.232591   8.779192   7.946461   6.601386
    28  H    1.070001   2.117783   2.709332   4.052257   5.089169
                    6          7          8          9         10
     6  O    0.000000
     7  N    2.259381   0.000000
     8  C    2.895717   1.440284   0.000000
     9  C    2.880836   2.530806   1.417804   0.000000
    10  C    4.269627   2.434421   1.407539   2.420523   0.000000
    11  C    5.270643   3.729834   2.441272   2.794747   1.393928
    12  C    5.259419   4.263455   2.825248   2.425958   2.415784
    13  C    4.238463   3.809353   2.462173   1.410085   2.804472
    14  H    6.189059   6.975224   8.352352   8.921806   9.364648
    15  H    5.199587   6.397638   7.659204   8.042214   8.783409
    16  H    4.645255   4.917447   6.322174   7.102055   7.186433
    17  H    4.637823   4.910146   6.314470   7.038614   7.237188
    18  H    2.736858   4.050982   5.200898   5.460840   6.446606
    19  H    2.735776   4.050466   5.200341   5.531466   6.380734
    20  H    3.150712   2.554894   3.994509   4.962165   4.783856
    21  H    2.278132   2.819330   2.185234   1.072331   3.410961
    22  H    4.774208   2.641002   2.166267   3.411572   1.083033
    23  H    6.286074   4.583261   3.417881   3.877281   2.149088
    24  N    4.891727   4.995402   3.767663   2.464839   4.231317
    25  H    6.276045   5.344795   3.907335   3.415668   3.387087
    26  O    4.686781   5.337996   4.325617   2.945951   5.048791
    27  O    6.093242   6.077825   4.795742   3.594541   5.046250
    28  H    5.136324   6.327939   7.590405   7.928699   8.760519
                   11         12         13         14         15
    11  C    0.000000
    12  C    1.392217   0.000000
    13  C    2.426037   1.403491   0.000000
    14  H   10.698919  11.132842  10.328987   0.000000
    15  H   10.040529  10.322138   9.413506   1.808266   0.000000
    16  H    8.543699   9.119237   8.488868   2.497823   2.508070
    17  H    8.588554   9.117997   8.437852   2.479641   3.087030
    18  H    7.636329   7.805721   6.838900   3.754813   3.118658
    19  H    7.576679   7.797168   6.891075   3.772446   2.549218
    20  H    6.160770   6.813044   6.316548   4.677339   4.509241
    21  H    3.866065   3.377599   2.122179   8.438024   7.459057
    22  H    2.134026   3.385439   3.887174   9.227755   8.802042
    23  H    1.082536   2.147475   3.405521  11.495200  10.907865
    24  N    3.729650   2.453864   1.426859  11.069304  10.030881
    25  H    2.134999   1.082355   2.168013  12.207040  11.369203
    26  O    4.757307   3.583204   2.403382  10.788020   9.583942
    27  O    4.290887   2.936891   2.405236  12.220814  11.242046
    28  H   10.015304  10.260937   9.310898   1.784646   1.778133
                   16         17         18         19         20
    16  H    0.000000
    17  H    1.808930   0.000000
    18  H    3.092271   2.501445   0.000000
    19  H    2.509267   3.089617   1.811657   0.000000
    20  H    2.561667   2.556623   2.874489   2.874219   0.000000
    21  H    6.830221   6.715677   4.845971   4.992023   4.918347
    22  H    6.956913   7.053933   6.645343   6.534612   4.561848
    23  H    9.268350   9.344329   8.575022   8.483561   6.877251
    24  N    9.412220   9.322978   7.453814   7.554242   7.393377
    25  H   10.195271  10.196496   8.847043   8.835665   7.892488
    26  O    9.270765   9.287715   7.209203   7.175864   7.530059
    27  O   10.609746  10.398957   8.548608   8.793512   8.501527
    28  H    3.035284   2.454266   2.483795   3.062583   4.441397
                   21         22         23         24         25
    21  H    0.000000
    22  H    4.327812   0.000000
    23  H    4.948537   2.449161   0.000000
    24  N    2.635509   5.313937   4.599182   0.000000
    25  H    4.277856   4.261374   2.451685   2.694211   0.000000
    26  O    2.680755   6.112574   5.678452   1.340466   3.875155
    27  O    3.818040   6.100377   4.974954   1.340448   2.738005
    28  H    7.301035   8.812952  10.907911   9.895780  11.310828
                   26         27         28
    26  O    0.000000
    27  O    2.307273   0.000000
    28  H    9.552181  10.994242   0.000000
 Stoichiometry    C10H12N3O3(1-)
 Framework group  C1[X(C10H12N3O3)]
 Deg. of freedom    78
 Full point group                 C1      NOp   1
 Largest Abelian subgroup         C1      NOp   1
 Largest concise Abelian subgroup C1      NOp   1
                         Standard orientation:                         
 ---------------------------------------------------------------------
 Center     Atomic      Atomic             Coordinates (Angstroms)
 Number     Number       Type             X           Y           Z
 ---------------------------------------------------------------------
      1          6           0        6.397103   -0.918011    0.026673
      2          6           0        5.316186    0.151256    0.110688
      3          6           0        3.923587   -0.473373   -0.014907
      4          7           0        2.887525    0.541088    0.074914
      5          6           0        1.563533    0.226978   -0.008751
      6          8           0        1.236572   -0.938705   -0.163733
      7          7           0        0.628542    1.223287    0.083032
      8          6           0       -0.805584    1.106033    0.020179
      9          6           0       -1.516199   -0.120088    0.062842
     10          6           0       -1.550170    2.295267   -0.091546
     11          6           0       -2.942329    2.273216   -0.158194
     12          6           0       -3.627247    1.061895   -0.115108
     13          6           0       -2.924408   -0.147873   -0.004348
     14          1           0        7.399045   -0.453230    0.140716
     15          1           0        6.351365   -1.443027   -0.951297
     16          1           0        5.471422    0.892488   -0.703339
     17          1           0        5.402162    0.668916    1.090384
     18          1           0        3.782361   -1.215324    0.802098
     19          1           0        3.842435   -0.993721   -0.994951
     20          1           0        3.162285    1.527453    0.205972
     21          1           0       -1.016749   -1.065288    0.146760
     22          1           0       -1.047140    3.253718   -0.127507
     23          1           0       -3.492979    3.201303   -0.243766
     24          7           0       -3.630328   -1.387106    0.039283
     25          1           0       -4.708215    1.073317   -0.168685
     26          8           0       -3.173581   -2.454993   -0.629930
     27          8           0       -4.761150   -1.505706    0.749196
     28          1           0        6.232267   -1.624058    0.813583
 ---------------------------------------------------------------------
 Rotational constants (GHZ):      1.1979388      0.1931412      0.1687491
 General basis read from cards:  (6D, 7F)
 There are   328 symmetry adapted cartesian basis functions of A   symmetry.
 There are   328 symmetry adapted basis functions of A   symmetry.
   328 basis functions,   560 primitive gaussians,   328 cartesian basis functions
    59 alpha electrons       59 beta electrons
       nuclear repulsion energy      1006.7860841954 Hartrees.
 NAtoms=   28 NActive=   28 NUniq=   28 SFac= 1.00D+00 NAtFMM=   60 NAOKFM=F Big=F
 Integral buffers will be    131072 words long.
 Raffenetti 2 integral format.
 Two-electron integral symmetry is turned on.
 ------------------------------------------------------------------------------
 Polarizable Continuum Model (PCM)
 =================================
 Model                : PCM (using non-symmetric T matrix).
 Atomic radii         : SMD-Coulomb.
 Polarization charges : Total charges.
 Charge compensation  : None.
 Solution method      : On-the-fly selection.
 Cavity type          : VdW (van der Waals Surface) (Alpha=1.000).
 Cavity algorithm     : GePol (No added spheres)
                        Default sphere list used, NSphG=   28.
                        Lebedev-Laikov grids with approx.  5.0 points / Ang**2.
                        Smoothing algorithm: York/Karplus (Gamma=1.0000).
                        Polarization charges: spherical gaussians, with
                                              point-specific exponents (IZeta= 3).
                        Self-potential: point-specific (ISelfS= 7).
                        Self-field    : sphere-specific E.n sum rule (ISelfD= 2).
 1st derivatives      : Analytical E(r).r(x)/FMM algorithm (CHGder, D1EAlg=3).
                        Cavity 1st derivative terms included.
 Solvent              : Water, Eps=  78.355300 Eps(inf)=   1.777849
 ------------------------------------------------------------------------------
 ------------------------------------------------------------------------------
 Atomic radii for non-electrostatic terms: SMD-CDS.
 ------------------------------------------------------------------------------
 Nuclear repulsion after PCM non-electrostatic terms =     1006.7961527801 Hartrees.
 One-electron integrals computed using PRISM.
 NBasis=   328 RedAO= T EigKep=  1.82D-06  NBF=   328
 NBsUse=   328 1.00D-06 EigRej= -1.00D+00 NBFU=   328
 ExpMin= 4.38D-02 ExpMax= 5.48D+03 ExpMxC= 8.25D+02 IAcc=3 IRadAn=         5 AccDes= 0.00D+00
 Harris functional with IExCor= 1009 and IRadAn=       5 diagonalized for initial guess.
 HarFok:  IExCor= 1009 AccDes= 0.00D+00 IRadAn=         5 IDoV= 1 UseB2=F ITyADJ=14
 ICtDFT=  3500011 ScaDFX=  1.000000  1.000000  1.000000  1.000000
 FoFCou: FMM=F IPFlag=           0 FMFlag=      100000 FMFlg1=           0
         NFxFlg=           0 DoJE=T BraDBF=F KetDBF=T FulRan=T
         wScrn=  0.000000 ICntrl=     500 IOpCl=  0 I1Cent=   200000004 NGrid=           0
         NMat0=    1 NMatS0=      1 NMatT0=    0 NMatD0=    1 NMtDS0=    0 NMtDT0=    0
 Petite list used in FoFCou.
 Requested convergence on RMS density matrix=1.00D-08 within 128 cycles.
 Requested convergence on MAX density matrix=1.00D-06.
 Requested convergence on             energy=1.00D-06.
 No special actions if energy rises.
 Inv3:  Mode=1 IEnd=    14838528.
 Iteration    1 A*A^-1 deviation from unit magnitude is 5.55D-15 for   2210.
 Iteration    1 A*A^-1 deviation from orthogonality  is 4.15D-15 for   2190   1423.
 Iteration    1 A^-1*A deviation from unit magnitude is 5.33D-15 for   2189.
 Iteration    1 A^-1*A deviation from orthogonality  is 5.92D-12 for   1036   1026.
 Error on total polarization charges =  0.07146
 SCF Done:  E(RM062X) =  -777.937963446     A.U. after   20 cycles
            NFock= 20  Conv=0.30D-08     -V/T= 2.0096
 SMD-CDS (non-electrostatic) energy       (kcal/mol) =       6.32
 (included in total energy above)

 **********************************************************************

            Population analysis using the SCF density.

 **********************************************************************

 Orbital symmetries:
       Occupied  (A) (A) (A) (A) (A) (A) (A) (A) (A) (A) (A) (A)
                 (A) (A) (A) (A) (A) (A) (A) (A) (A) (A) (A) (A)
                 (A) (A) (A) (A) (A) (A) (A) (A) (A) (A) (A) (A)
                 (A) (A) (A) (A) (A) (A) (A) (A) (A) (A) (A) (A)
                 (A) (A) (A) (A) (A) (A) (A) (A) (A) (A) (A)
       Virtual   (A) (A) (A) (A) (A) (A) (A) (A) (A) (A) (A) (A)
                 (A) (A) (A) (A) (A) (A) (A) (A) (A) (A) (A) (A)
                 (A) (A) (A) (A) (A) (A) (A) (A) (A) (A) (A) (A)
                 (A) (A) (A) (A) (A) (A) (A) (A) (A) (A) (A) (A)
                 (A) (A) (A) (A) (A) (A) (A) (A) (A) (A) (A) (A)
                 (A) (A) (A) (A) (A) (A) (A) (A) (A) (A) (A) (A)
                 (A) (A) (A) (A) (A) (A) (A) (A) (A) (A) (A) (A)
                 (A) (A) (A) (A) (A) (A) (A) (A) (A) (A) (A) (A)
                 (A) (A) (A) (A) (A) (A) (A) (A) (A) (A) (A) (A)
                 (A) (A) (A) (A) (A) (A) (A) (A) (A) (A) (A) (A)
                 (A) (A) (A) (A) (A) (A) (A) (A) (A) (A) (A) (A)
                 (A) (A) (A) (A) (A) (A) (A) (A) (A) (A) (A) (A)
                 (A) (A) (A) (A) (A) (A) (A) (A) (A) (A) (A) (A)
                 (A) (A) (A) (A) (A) (A) (A) (A) (A) (A) (A) (A)
                 (A) (A) (A) (A) (A) (A) (A) (A) (A) (A) (A) (A)
                 (A) (A) (A) (A) (A) (A) (A) (A) (A) (A) (A) (A)
                 (A) (A) (A) (A) (A) (A) (A) (A) (A) (A) (A) (A)
                 (A) (A) (A) (A) (A) (A) (A) (A) (A) (A) (A) (A)
                 (A) (A) (A) (A) (A) (A) (A) (A) (A) (A) (A) (A)
                 (A) (A) (A) (A) (A) (A) (A) (A) (A) (A) (A) (A)
                 (A) (A) (A) (A) (A) (A) (A) (A) (A) (A) (A) (A)
                 (A) (A) (A) (A) (A) (A) (A) (A) (A) (A) (A) (A)
                 (A) (A) (A) (A) (A)
 The electronic state is 1-A.
 Alpha  occ. eigenvalues --  -19.71078 -19.71066 -19.58768 -15.02857 -14.76134
 Alpha  occ. eigenvalues --  -14.70582 -10.64549 -10.62386 -10.59946 -10.57141
 Alpha  occ. eigenvalues --  -10.56999 -10.56537 -10.56290 -10.55952 -10.54047
 Alpha  occ. eigenvalues --  -10.52762  -1.29611  -1.15633  -1.13095  -1.00758
 Alpha  occ. eigenvalues --   -0.99613  -0.95019  -0.90359  -0.87058  -0.83357
 Alpha  occ. eigenvalues --   -0.80276  -0.76056  -0.70490  -0.68203  -0.66757
 Alpha  occ. eigenvalues --   -0.64691  -0.61405  -0.60253  -0.59149  -0.57492
 Alpha  occ. eigenvalues --   -0.55617  -0.54448  -0.53552  -0.51520  -0.50900
 Alpha  occ. eigenvalues --   -0.49617  -0.48863  -0.45797  -0.45497  -0.44075
 Alpha  occ. eigenvalues --   -0.43961  -0.42637  -0.41431  -0.41129  -0.39480
 Alpha  occ. eigenvalues --   -0.39100  -0.38780  -0.38612  -0.35549  -0.34728
 Alpha  occ. eigenvalues --   -0.32283  -0.30563  -0.28034  -0.23625
 Alpha virt. eigenvalues --   -0.09739   0.01537   0.02125   0.02383   0.03403
 Alpha virt. eigenvalues --    0.03902   0.04317   0.04767   0.04816   0.05642
 Alpha virt. eigenvalues --    0.06448   0.06735   0.07075   0.08148   0.08337
 Alpha virt. eigenvalues --    0.08638   0.08896   0.09688   0.10477   0.10794
 Alpha virt. eigenvalues --    0.11129   0.11522   0.11957   0.12607   0.13106
 Alpha virt. eigenvalues --    0.14000   0.14350   0.14975   0.15207   0.15288
 Alpha virt. eigenvalues --    0.15970   0.16306   0.16780   0.17964   0.18175
 Alpha virt. eigenvalues --    0.19397   0.19621   0.19859   0.20519   0.20857
 Alpha virt. eigenvalues --    0.21261   0.21533   0.21844   0.22733   0.23348
 Alpha virt. eigenvalues --    0.23660   0.23871   0.24239   0.24358   0.24816
 Alpha virt. eigenvalues --    0.25305   0.25602   0.25994   0.26549   0.27013
 Alpha virt. eigenvalues --    0.27479   0.27958   0.28070   0.28629   0.28924
 Alpha virt. eigenvalues --    0.29873   0.30385   0.30609   0.31318   0.31601
 Alpha virt. eigenvalues --    0.31880   0.32253   0.32497   0.32840   0.33173
 Alpha virt. eigenvalues --    0.33560   0.34017   0.34406   0.35224   0.35562
 Alpha virt. eigenvalues --    0.36050   0.36759   0.36985   0.37447   0.38269
 Alpha virt. eigenvalues --    0.38611   0.39231   0.40439   0.40763   0.42226
 Alpha virt. eigenvalues --    0.44147   0.44593   0.45390   0.47725   0.48846
 Alpha virt. eigenvalues --    0.50398   0.52002   0.52951   0.56225   0.61783
 Alpha virt. eigenvalues --    0.63299   0.66782   0.69907   0.70323   0.71562
 Alpha virt. eigenvalues --    0.71883   0.73974   0.75419   0.76539   0.77053
 Alpha virt. eigenvalues --    0.77628   0.79010   0.79665   0.80273   0.80388
 Alpha virt. eigenvalues --    0.81907   0.82539   0.84112   0.85078   0.87419
 Alpha virt. eigenvalues --    0.88132   0.90065   0.90524   0.90993   0.95092
 Alpha virt. eigenvalues --    0.97494   0.98414   0.98815   0.99382   1.01190
 Alpha virt. eigenvalues --    1.01491   1.02679   1.04100   1.04873   1.05997
 Alpha virt. eigenvalues --    1.06869   1.07593   1.08856   1.10015   1.11074
 Alpha virt. eigenvalues --    1.11162   1.12673   1.13107   1.13416   1.15199
 Alpha virt. eigenvalues --    1.16043   1.17759   1.19543   1.20152   1.21468
 Alpha virt. eigenvalues --    1.22666   1.23878   1.24399   1.25275   1.25901
 Alpha virt. eigenvalues --    1.29379   1.31206   1.31610   1.32544   1.34310
 Alpha virt. eigenvalues --    1.34789   1.35218   1.35387   1.36299   1.38246
 Alpha virt. eigenvalues --    1.40386   1.40828   1.42822   1.44781   1.45955
 Alpha virt. eigenvalues --    1.46741   1.48993   1.49803   1.50830   1.51269
 Alpha virt. eigenvalues --    1.52520   1.53220   1.53595   1.55740   1.58292
 Alpha virt. eigenvalues --    1.61155   1.62152   1.62435   1.69055   1.77501
 Alpha virt. eigenvalues --    1.77684   1.79474   1.81764   1.83844   1.84943
 Alpha virt. eigenvalues --    1.85899   1.87390   1.87761   1.88767   1.89178
 Alpha virt. eigenvalues --    1.90803   1.92755   1.93626   1.93830   1.95534
 Alpha virt. eigenvalues --    1.96855   1.98647   1.99197   2.00366   2.03769
 Alpha virt. eigenvalues --    2.04063   2.04779   2.05685   2.06431   2.07524
 Alpha virt. eigenvalues --    2.08206   2.10179   2.10593   2.14938   2.17171
 Alpha virt. eigenvalues --    2.18888   2.21904   2.22455   2.23590   2.24008
 Alpha virt. eigenvalues --    2.26221   2.29076   2.29695   2.32051   2.32767
 Alpha virt. eigenvalues --    2.37173   2.38579   2.40997   2.41868   2.42079
 Alpha virt. eigenvalues --    2.44505   2.49709   2.51447   2.54009   2.57046
 Alpha virt. eigenvalues --    2.60147   2.63996   2.66333   2.67028   2.67242
 Alpha virt. eigenvalues --    2.71517   2.73199   2.77408   2.78191   2.80173
 Alpha virt. eigenvalues --    2.80933   2.82443   2.86430   2.92892   2.95074
 Alpha virt. eigenvalues --    2.96583   2.99729   3.04023   3.14928   3.15280
 Alpha virt. eigenvalues --    3.29447   3.35200   3.43506   4.09804   4.18366
 Alpha virt. eigenvalues --    4.25489   4.27883   4.29345   4.36401   4.39049
 Alpha virt. eigenvalues --    4.41033   4.42731   4.45211   4.50017   4.52223
 Alpha virt. eigenvalues --    4.56628   4.59854   4.66517   4.78812
          Condensed to atoms (all electrons):
               1          2          3          4          5          6
     1  C    5.654663  -0.076822   0.048108  -0.002290  -0.063637  -0.004230
     2  C   -0.076822   6.213405  -0.463529  -0.071455   0.169681   0.021997
     3  C    0.048108  -0.463529   7.036472   0.291238  -0.660251  -0.090114
     4  N   -0.002290  -0.071455   0.291238   7.732958   0.384761  -0.243010
     5  C   -0.063637   0.169681  -0.660251   0.384761   6.284797   0.423711
     6  O   -0.004230   0.021997  -0.090114  -0.243010   0.423711   8.804094
     7  N   -0.003319   0.008193  -0.101931  -0.343488   0.318679  -0.137641
     8  C   -0.008273  -0.003170  -0.374250  -0.129361  -0.982818  -0.151249
     9  C    0.002052   0.007749   0.165226   0.060007   1.934298   0.175556
    10  C   -0.002805   0.003496  -0.143073  -0.065304  -0.884426  -0.130771
    11  C   -0.000034  -0.000749  -0.012964  -0.011210  -0.254546   0.015679
    12  C    0.000065   0.000563   0.016556   0.009297   0.283192  -0.010715
    13  C   -0.001466   0.009203  -0.159642  -0.042997  -1.683198   0.143264
    14  H    0.410639  -0.086384   0.029292   0.000463  -0.001238   0.000005
    15  H    0.414494  -0.060592  -0.009204   0.000488   0.001525  -0.000050
    16  H   -0.029640   0.413799  -0.057550   0.005688  -0.016553  -0.000220
    17  H   -0.041780   0.432441  -0.085691   0.005996   0.003761  -0.000176
    18  H    0.000863  -0.043024   0.430085  -0.058539  -0.025261   0.003149
    19  H    0.003834  -0.041591   0.424615  -0.057376  -0.023795   0.003421
    20  H   -0.003898   0.002542  -0.076968   0.246558   0.028327   0.010763
    21  H    0.000000   0.000009   0.004052   0.000152   0.028669  -0.004700
    22  H    0.000001   0.000021  -0.000315  -0.000073  -0.006579   0.000081
    23  H   -0.000000  -0.000000   0.000013   0.000012   0.001815  -0.000002
    24  N    0.000008  -0.000050   0.000934   0.000227  -0.001279  -0.000150
    25  H    0.000000   0.000000   0.000003  -0.000001   0.000858   0.000004
    26  O    0.000000   0.000011   0.000089  -0.000147   0.001147  -0.000576
    27  O    0.000000  -0.000001   0.000146   0.000015   0.005502   0.000027
    28  H    0.424070  -0.074169  -0.006041   0.000503  -0.001202  -0.000056
               7          8          9         10         11         12
     1  C   -0.003319  -0.008273   0.002052  -0.002805  -0.000034   0.000065
     2  C    0.008193  -0.003170   0.007749   0.003496  -0.000749   0.000563
     3  C   -0.101931  -0.374250   0.165226  -0.143073  -0.012964   0.016556
     4  N   -0.343488  -0.129361   0.060007  -0.065304  -0.011210   0.009297
     5  C    0.318679  -0.982818   1.934298  -0.884426  -0.254546   0.283192
     6  O   -0.137641  -0.151249   0.175556  -0.130771   0.015679  -0.010715
     7  N    7.826001   0.302910  -0.073010  -0.078827   0.030973   0.012281
     8  C    0.302910  11.451727  -1.600272   0.128642   0.341470  -0.482140
     9  C   -0.073010  -1.600272  34.789710  -1.691222  -2.760004  -4.962609
    10  C   -0.078827   0.128642  -1.691222  12.261745   0.073568  -0.984297
    11  C    0.030973   0.341470  -2.760004   0.073568   6.940079   0.170018
    12  C    0.012281  -0.482140  -4.962609  -0.984297   0.170018  11.778734
    13  C   -0.091262  -2.616922 -20.752594  -1.948041   1.464051  -0.086757
    14  H    0.000009  -0.000025   0.000005  -0.000002  -0.000000   0.000000
    15  H    0.000019   0.000042  -0.000024   0.000003  -0.000000   0.000000
    16  H   -0.000457  -0.000330  -0.000592   0.000249   0.000001   0.000003
    17  H    0.000323  -0.000442   0.000343  -0.000049  -0.000004   0.000001
    18  H   -0.001457   0.001163  -0.002158   0.001052  -0.000002  -0.000001
    19  H   -0.000179  -0.007236   0.005797  -0.002179  -0.000040  -0.000007
    20  H    0.026645   0.014997  -0.002099   0.002240   0.000051  -0.000181
    21  H   -0.003335  -0.086347   0.400086  -0.009492  -0.014673   0.015871
    22  H    0.002022  -0.025829   0.002899   0.365702  -0.026902  -0.001684
    23  H    0.000524   0.014739   0.002488  -0.015542   0.317298   0.002002
    24  N    0.000018  -0.002013  -0.164357   0.006543   0.105087  -0.100658
    25  H    0.000008   0.004597   0.038150  -0.006844  -0.048631   0.413392
    26  O   -0.000069   0.051956  -0.163286  -0.014809  -0.020346  -0.019351
    27  O   -0.000159   0.013580  -0.011751  -0.024233   0.026065  -0.163291
    28  H    0.000017   0.000015  -0.000053   0.000005  -0.000000   0.000000
              13         14         15         16         17         18
     1  C   -0.001466   0.410639   0.414494  -0.029640  -0.041780   0.000863
     2  C    0.009203  -0.086384  -0.060592   0.413799   0.432441  -0.043024
     3  C   -0.159642   0.029292  -0.009204  -0.057550  -0.085691   0.430085
     4  N   -0.042997   0.000463   0.000488   0.005688   0.005996  -0.058539
     5  C   -1.683198  -0.001238   0.001525  -0.016553   0.003761  -0.025261
     6  O    0.143264   0.000005  -0.000050  -0.000220  -0.000176   0.003149
     7  N   -0.091262   0.000009   0.000019  -0.000457   0.000323  -0.001457
     8  C   -2.616922  -0.000025   0.000042  -0.000330  -0.000442   0.001163
     9  C  -20.752594   0.000005  -0.000024  -0.000592   0.000343  -0.002158
    10  C   -1.948041  -0.000002   0.000003   0.000249  -0.000049   0.001052
    11  C    1.464051  -0.000000  -0.000000   0.000001  -0.000004  -0.000002
    12  C   -0.086757   0.000000   0.000000   0.000003   0.000001  -0.000001
    13  C   32.143306   0.000000  -0.000001  -0.000061   0.000033  -0.000465
    14  H    0.000000   0.482403  -0.023609  -0.002826  -0.003112  -0.000052
    15  H   -0.000001  -0.023609   0.488151  -0.004711   0.003833  -0.000321
    16  H   -0.000061  -0.002826  -0.004711   0.495771  -0.030882   0.003840
    17  H    0.000033  -0.003112   0.003833  -0.030882   0.494818  -0.005661
    18  H   -0.000465  -0.000052  -0.000321   0.003840  -0.005661   0.516257
    19  H    0.000963  -0.000058   0.002644  -0.005596   0.003855  -0.042299
    20  H    0.000703  -0.000003   0.000000   0.000376   0.000549   0.002133
    21  H   -0.033117  -0.000000   0.000000  -0.000000   0.000000  -0.000001
    22  H   -0.002840  -0.000000  -0.000000  -0.000000  -0.000000  -0.000000
    23  H   -0.008622  -0.000000   0.000000   0.000000   0.000000   0.000000
    24  N   -0.065092   0.000000  -0.000000   0.000000  -0.000000  -0.000002
    25  H   -0.094474   0.000000  -0.000000  -0.000000  -0.000000  -0.000000
    26  O    0.121160  -0.000000   0.000000  -0.000000   0.000000   0.000000
    27  O    0.116326   0.000000  -0.000000   0.000000  -0.000000   0.000000
    28  H   -0.000005  -0.023634  -0.029845   0.004309  -0.005109   0.003227
              19         20         21         22         23         24
     1  C    0.003834  -0.003898   0.000000   0.000001  -0.000000   0.000008
     2  C   -0.041591   0.002542   0.000009   0.000021  -0.000000  -0.000050
     3  C    0.424615  -0.076968   0.004052  -0.000315   0.000013   0.000934
     4  N   -0.057376   0.246558   0.000152  -0.000073   0.000012   0.000227
     5  C   -0.023795   0.028327   0.028669  -0.006579   0.001815  -0.001279
     6  O    0.003421   0.010763  -0.004700   0.000081  -0.000002  -0.000150
     7  N   -0.000179   0.026645  -0.003335   0.002022   0.000524   0.000018
     8  C   -0.007236   0.014997  -0.086347  -0.025829   0.014739  -0.002013
     9  C    0.005797  -0.002099   0.400086   0.002899   0.002488  -0.164357
    10  C   -0.002179   0.002240  -0.009492   0.365702  -0.015542   0.006543
    11  C   -0.000040   0.000051  -0.014673  -0.026902   0.317298   0.105087
    12  C   -0.000007  -0.000181   0.015871  -0.001684   0.002002  -0.100658
    13  C    0.000963   0.000703  -0.033117  -0.002840  -0.008622  -0.065092
    14  H   -0.000058  -0.000003  -0.000000  -0.000000  -0.000000   0.000000
    15  H    0.002644   0.000000   0.000000  -0.000000   0.000000  -0.000000
    16  H   -0.005596   0.000376  -0.000000  -0.000000   0.000000   0.000000
    17  H    0.003855   0.000549   0.000000  -0.000000   0.000000  -0.000000
    18  H   -0.042299   0.002133  -0.000001  -0.000000   0.000000  -0.000002
    19  H    0.515025   0.002147   0.000000   0.000000  -0.000000   0.000003
    20  H    0.002147   0.279416   0.000001   0.000003  -0.000000   0.000001
    21  H    0.000000   0.000001   0.429468  -0.000085   0.000010  -0.007487
    22  H    0.000000   0.000003  -0.000085   0.445125  -0.003166   0.000014
    23  H   -0.000000  -0.000000   0.000010  -0.003166   0.429274   0.000002
    24  N    0.000003   0.000001  -0.007487   0.000014   0.000002   6.831922
    25  H    0.000000   0.000000  -0.000103  -0.000109  -0.003177  -0.004568
    26  O   -0.000000   0.000000   0.005371  -0.000003   0.000019   0.356621
    27  O   -0.000000  -0.000000  -0.001071  -0.000003  -0.000064   0.349363
    28  H   -0.000485   0.000000   0.000000  -0.000000   0.000000   0.000000
              25         26         27         28
     1  C    0.000000   0.000000   0.000000   0.424070
     2  C    0.000000   0.000011  -0.000001  -0.074169
     3  C    0.000003   0.000089   0.000146  -0.006041
     4  N   -0.000001  -0.000147   0.000015   0.000503
     5  C    0.000858   0.001147   0.005502  -0.001202
     6  O    0.000004  -0.000576   0.000027  -0.000056
     7  N    0.000008  -0.000069  -0.000159   0.000017
     8  C    0.004597   0.051956   0.013580   0.000015
     9  C    0.038150  -0.163286  -0.011751  -0.000053
    10  C   -0.006844  -0.014809  -0.024233   0.000005
    11  C   -0.048631  -0.020346   0.026065  -0.000000
    12  C    0.413392  -0.019351  -0.163291   0.000000
    13  C   -0.094474   0.121160   0.116326  -0.000005
    14  H    0.000000  -0.000000   0.000000  -0.023634
    15  H   -0.000000   0.000000  -0.000000  -0.029845
    16  H   -0.000000  -0.000000   0.000000   0.004309
    17  H   -0.000000   0.000000  -0.000000  -0.005109
    18  H   -0.000000   0.000000   0.000000   0.003227
    19  H    0.000000  -0.000000  -0.000000  -0.000485
    20  H    0.000000   0.000000  -0.000000   0.000000
    21  H   -0.000103   0.005371  -0.001071   0.000000
    22  H   -0.000109  -0.000003  -0.000003  -0.000000
    23  H   -0.003177   0.000019  -0.000064   0.000000
    24  N   -0.004568   0.356621   0.349363   0.000000
    25  H    0.428930  -0.000483   0.004416  -0.000000
    26  O   -0.000483   7.874868  -0.074550  -0.000000
    27  O    0.004416  -0.074550   7.887775   0.000000
    28  H   -0.000000  -0.000000   0.000000   0.484902
 Mulliken charges:
               1
     1  C   -0.720606
     2  C   -0.361574
     3  C   -0.205309
     4  N   -0.713114
     5  C    0.734058
     6  O   -0.828095
     7  N   -0.693488
     8  C    0.144840
     9  C    0.599668
    10  C   -0.841331
    11  C   -0.334235
    12  C    0.109717
    13  C   -0.411455
    14  H    0.218125
    15  H    0.217157
    16  H    0.225380
    17  H    0.226953
    18  H    0.217473
    19  H    0.218536
    20  H    0.465698
    21  H    0.276720
    22  H    0.251721
    23  H    0.262374
    24  N   -0.305085
    25  H    0.268030
    26  O   -0.117621
    27  O   -0.128092
    28  H    0.223553
 Sum of Mulliken charges =  -1.00000
 Mulliken charges with hydrogens summed into heavy atoms:
               1
     1  C   -0.061770
     2  C    0.090760
     3  C    0.230701
     4  N   -0.247417
     5  C    0.734058
     6  O   -0.828095
     7  N   -0.693488
     8  C    0.144840
     9  C    0.876389
    10  C   -0.589610
    11  C   -0.071861
    12  C    0.377747
    13  C   -0.411455
    24  N   -0.305085
    26  O   -0.117621
    27  O   -0.128092
 Electronic spatial extent (au):  <R**2>=           6181.2185
 Charge=             -1.0000 electrons
 Dipole moment (field-independent basis, Debye):
    X=              5.1671    Y=              6.2245    Z=              0.1518  Tot=              8.0911
 Quadrupole moment (field-independent basis, Debye-Ang):
   XX=           -112.3925   YY=           -110.3710   ZZ=           -101.9864
   XY=            -20.5064   XZ=              4.8186   YZ=             -2.7870
 Traceless Quadrupole moment (field-independent basis, Debye-Ang):
   XX=             -4.1425   YY=             -2.1210   ZZ=              6.2635
   XY=            -20.5064   XZ=              4.8186   YZ=             -2.7870
 Octapole moment (field-independent basis, Debye-Ang**2):
  XXX=            173.9964  YYY=             35.6874  ZZZ=              0.1786  XYY=             17.8203
  XXY=            108.3540  XXZ=            -20.8140  XZZ=              9.5101  YZZ=             -9.7398
  YYZ=              3.0395  XYZ=              1.7225
 Hexadecapole moment (field-independent basis, Debye-Ang**3):
 XXXX=          -7355.6697 YYYY=          -1152.0466 ZZZZ=           -171.4418 XXXY=           -307.3758
 XXXZ=            149.5974 YYYX=           -113.9567 YYYZ=            -20.5507 ZZZX=             -5.0272
 ZZZY=              1.3410 XXYY=          -1489.0255 XXZZ=          -1245.7909 YYZZ=           -235.5495
 XXYZ=             10.1786 YYXZ=              0.4259 ZZXY=             11.6773
 N-N= 1.006796152780D+03 E-N=-3.843489282552D+03  KE= 7.705562561419D+02
 D1PCM: PCM CHGder 1st derivatives, ID1Alg=3 FixD1E=F DoIter=F DoCFld=F I1PDM=0.
 Calling FoFJK, ICntrl=      2127 FMM=F ISym2X=0 I1Cent= 0 IOpClX= 0 NMat=1 NMatS=1 NMatT=0.
 ***** Axes restored to original set *****
 -------------------------------------------------------------------
 Center     Atomic                   Forces (Hartrees/Bohr)
 Number     Number              X              Y              Z
 -------------------------------------------------------------------
      1        6           0.008124978   -0.020190070    0.008252846
      2        6          -0.004201125   -0.005141949    0.003931271
      3        6           0.002504734    0.001459364   -0.000662491
      4        7          -0.015796883   -0.025266763   -0.002720696
      5        6          -0.049664349   -0.015515813    0.035270106
      6        8           0.047392639    0.058139567   -0.003158106
      7        7          -0.023280709   -0.018052693    0.012544254
      8        6           0.039327774   -0.008114841   -0.047830131
      9        6           0.001315660    0.010510044    0.012836892
     10        6          -0.005334850    0.003215060    0.006956357
     11        6           0.009090826    0.003328599   -0.009801014
     12        6          -0.008404390    0.014530260    0.009518532
     13        6          -0.007603735   -0.028029252   -0.007384213
     14        1           0.001100644    0.009350503    0.005867588
     15        1          -0.007617714   -0.000743112   -0.006592575
     16        1          -0.005326127    0.007811943   -0.003612565
     17        1           0.006524422   -0.001153184    0.007127652
     18        1           0.004986074   -0.007056743    0.005184630
     19        1          -0.007220569    0.001883696   -0.006844875
     20        1           0.008448662    0.014615941    0.002453177
     21        1           0.004837385    0.000083178   -0.007493906
     22        1           0.001766627   -0.002054552   -0.003413795
     23        1          -0.000607837   -0.000046468    0.001868092
     24        7           0.029819677    0.108844593    0.024554604
     25        1           0.001143797    0.003755192    0.001896271
     26        8          -0.107054919   -0.040399138    0.003979019
     27        8           0.074875021   -0.080431718   -0.031268904
     28        1           0.000854289    0.014668352   -0.011458020
 -------------------------------------------------------------------
 Cartesian Forces:  Max     0.108844593 RMS     0.026441763

 GradGradGradGradGradGradGradGradGradGradGradGradGradGradGradGradGradGrad
 Berny optimization.
 FormGI is forming the generalized inverse of G from B-inverse, IUseBI=4.
 Internal  Forces:  Max     0.114250887 RMS     0.017823933
 Search for a local minimum.
 Step number   1 out of a maximum of  144
 All quantities printed in internal units (Hartrees-Bohrs-Radians)
 Mixed Optimization -- RFO/linear search
 Second derivative matrix not updated -- first step.
 ITU=  0
     Eigenvalues ---    0.00350   0.00465   0.00993   0.01159   0.01336
     Eigenvalues ---    0.01336   0.01467   0.01774   0.01799   0.01900
     Eigenvalues ---    0.01931   0.02022   0.02073   0.02097   0.02113
     Eigenvalues ---    0.02143   0.02149   0.02177   0.02181   0.03827
     Eigenvalues ---    0.04445   0.04970   0.05566   0.05747   0.05944
     Eigenvalues ---    0.07972   0.09180   0.11923   0.12670   0.16000
     Eigenvalues ---    0.16000   0.16000   0.16000   0.16000   0.16000
     Eigenvalues ---    0.16000   0.16000   0.21958   0.22000   0.22000
     Eigenvalues ---    0.22004   0.23449   0.23490   0.25000   0.25000
     Eigenvalues ---    0.25000   0.25000   0.25000   0.25000   0.25000
     Eigenvalues ---    0.29292   0.30103   0.32324   0.32328   0.32407
     Eigenvalues ---    0.32454   0.32502   0.32561   0.35630   0.35690
     Eigenvalues ---    0.35711   0.36937   0.37230   0.37881   0.39547
     Eigenvalues ---    0.40411   0.41035   0.41444   0.42436   0.43730
     Eigenvalues ---    0.44759   0.45640   0.46542   0.51092   0.52284
     Eigenvalues ---    0.57101   0.57105   0.95140
 RFO step:  Lambda=-7.58930815D-02 EMin= 3.50229510D-03
 Linear search not attempted -- first point.
 Maximum step size (   0.300) exceeded in Quadratic search.
    -- Step size scaled by   0.775
 Iteration  1 RMS(Cart)=  0.07104365 RMS(Int)=  0.00082527
 Iteration  2 RMS(Cart)=  0.00141804 RMS(Int)=  0.00005133
 Iteration  3 RMS(Cart)=  0.00000122 RMS(Int)=  0.00005133
 Iteration  4 RMS(Cart)=  0.00000000 RMS(Int)=  0.00005133
 Variable       Old X    -DE/DX   Delta X   Delta X   Delta X     New X
                                 (Linear)    (Quad)   (Total)
    R1        2.87758   0.00498   0.00000   0.01023   0.01023   2.88781
    R2        2.09829  -0.01068   0.00000  -0.02061  -0.02061   2.07768
    R3        2.09935  -0.00993   0.00000  -0.01919  -0.01919   2.08016
    R4        2.02201   0.01773   0.00000   0.03065   0.03065   2.05266
    R5        2.89398  -0.00580   0.00000  -0.01219  -0.01219   2.88179
    R6        2.10105  -0.00947   0.00000  -0.01834  -0.01834   2.08271
    R7        2.10021  -0.00916   0.00000  -0.01773  -0.01773   2.08248
    R8        2.74539  -0.00074   0.00000  -0.00126  -0.00126   2.74413
    R9        2.10256  -0.00947   0.00000  -0.01839  -0.01839   2.08417
   R10        2.10247  -0.00952   0.00000  -0.01847  -0.01847   2.08400
   R11        2.57629   0.00336   0.00000   0.00435   0.00435   2.58064
   R12        1.95071  -0.01706   0.00000  -0.02641  -0.02641   1.92430
   R13        2.30650   0.07323   0.00000   0.05523   0.05523   2.36173
   R14        2.58780  -0.01930   0.00000  -0.02548  -0.02548   2.56232
   R15        2.72174  -0.05510   0.00000  -0.09056  -0.09056   2.63118
   R16        2.67926  -0.00865   0.00000  -0.01353  -0.01354   2.66572
   R17        2.65986   0.00366   0.00000   0.00562   0.00552   2.66538
   R18        2.66467  -0.01037   0.00000  -0.01594  -0.01586   2.64882
   R19        2.02641   0.00732   0.00000   0.01274   0.01274   2.03915
   R20        2.63414   0.00004   0.00000   0.00040   0.00031   2.63445
   R21        2.04664   0.00210   0.00000   0.00377   0.00377   2.05041
   R22        2.63091  -0.00325   0.00000  -0.00442  -0.00441   2.62650
   R23        2.04570   0.00151   0.00000   0.00270   0.00270   2.04840
   R24        2.65221  -0.00911   0.00000  -0.01355  -0.01345   2.63876
   R25        2.04536   0.00269   0.00000   0.00481   0.00481   2.05016
   R26        2.69637  -0.01250   0.00000  -0.01976  -0.01976   2.67662
   R27        2.53311  -0.11425   0.00000  -0.13683  -0.13683   2.39628
   R28        2.53308  -0.11399   0.00000  -0.13651  -0.13651   2.39657
    A1        1.91871   0.00269   0.00000   0.00834   0.00827   1.92698
    A2        1.92965   0.00082   0.00000   0.00245   0.00241   1.93205
    A3        1.88959   0.00730   0.00000   0.02471   0.02460   1.91419
    A4        1.90222  -0.00253   0.00000  -0.00973  -0.00972   1.89249
    A5        1.91737  -0.00473   0.00000  -0.01507  -0.01521   1.90216
    A6        1.90628  -0.00360   0.00000  -0.01085  -0.01093   1.89535
    A7        1.93324   0.00028   0.00000   0.00231   0.00231   1.93556
    A8        1.90565   0.00173   0.00000   0.00844   0.00844   1.91409
    A9        1.89736   0.00124   0.00000   0.00676   0.00676   1.90412
   A10        1.91648  -0.00124   0.00000  -0.00583  -0.00585   1.91063
   A11        1.90988  -0.00056   0.00000  -0.00288  -0.00291   1.90697
   A12        1.90083  -0.00145   0.00000  -0.00887  -0.00893   1.89190
   A13        1.93759  -0.00312   0.00000  -0.00667  -0.00666   1.93093
   A14        1.90413   0.00101   0.00000   0.00240   0.00241   1.90654
   A15        1.90639   0.00083   0.00000   0.00176   0.00177   1.90816
   A16        1.90681   0.00176   0.00000   0.00654   0.00655   1.91336
   A17        1.90607   0.00193   0.00000   0.00719   0.00719   1.91326
   A18        1.90254  -0.00241   0.00000  -0.01141  -0.01142   1.89112
   A19        2.12692   0.00088   0.00000   0.00230   0.00230   2.12923
   A20        2.07745  -0.00002   0.00000   0.00021   0.00021   2.07767
   A21        2.07881  -0.00086   0.00000  -0.00252  -0.00252   2.07629
   A22        2.08058  -0.00188   0.00000  -0.00447  -0.00448   2.07610
   A23        2.08442  -0.03431   0.00000  -0.08156  -0.08157   2.00286
   A24        2.11818   0.03619   0.00000   0.08603   0.08603   2.20420
   A25        2.23661  -0.04220   0.00000  -0.10033  -0.10033   2.13628
   A26        2.17506   0.00610   0.00000   0.01422   0.01427   2.18933
   A27        2.05039  -0.00285   0.00000  -0.00707  -0.00702   2.04337
   A28        2.05774  -0.00325   0.00000  -0.00715  -0.00727   2.05047
   A29        2.11314  -0.00802   0.00000  -0.02127  -0.02120   2.09194
   A30        2.13080  -0.00110   0.00000  -0.00615  -0.00619   2.12461
   A31        2.03924   0.00912   0.00000   0.02742   0.02738   2.06662
   A32        2.11619   0.00315   0.00000   0.00990   0.00972   2.12591
   A33        2.09977  -0.00549   0.00000  -0.01779  -0.01770   2.08207
   A34        2.06722   0.00233   0.00000   0.00789   0.00798   2.07520
   A35        2.09858   0.00184   0.00000   0.00658   0.00651   2.10509
   A36        2.09236   0.00019   0.00000   0.00037   0.00040   2.09276
   A37        2.09224  -0.00203   0.00000  -0.00694  -0.00691   2.08533
   A38        2.10139  -0.01510   0.00000  -0.03868  -0.03857   2.06282
   A39        2.07215   0.01097   0.00000   0.03059   0.03053   2.10268
   A40        2.10964   0.00412   0.00000   0.00809   0.00803   2.11766
   A41        2.07932   0.02136   0.00000   0.05063   0.05081   2.13013
   A42        2.10567  -0.01118   0.00000  -0.02649  -0.02658   2.07909
   A43        2.09819  -0.01019   0.00000  -0.02414  -0.02423   2.07396
   A44        2.10372  -0.00540   0.00000  -0.01285  -0.01285   2.09088
   A45        2.10645  -0.00614   0.00000  -0.01459  -0.01459   2.09186
   A46        2.07301   0.01154   0.00000   0.02744   0.02744   2.10045
    D1       -3.12078  -0.00061   0.00000  -0.00357  -0.00361  -3.12439
    D2        1.04985  -0.00037   0.00000  -0.00329  -0.00333   1.04652
    D3       -1.02175  -0.00034   0.00000  -0.00140  -0.00144  -1.02318
    D4        1.06141   0.00027   0.00000   0.00157   0.00160   1.06301
    D5       -1.05114   0.00052   0.00000   0.00185   0.00187  -1.04927
    D6       -3.12274   0.00054   0.00000   0.00375   0.00377  -3.11897
    D7       -1.02616  -0.00033   0.00000  -0.00193  -0.00191  -1.02807
    D8       -3.13871  -0.00009   0.00000  -0.00165  -0.00163  -3.14034
    D9        1.07288  -0.00006   0.00000   0.00025   0.00027   1.07314
   D10        3.13390  -0.00009   0.00000  -0.00023  -0.00023   3.13367
   D11        1.03162  -0.00097   0.00000  -0.00573  -0.00573   1.02589
   D12       -1.04645   0.00088   0.00000   0.00565   0.00565  -1.04080
   D13       -1.04315   0.00143   0.00000   0.00797   0.00796  -1.03519
   D14        3.13775   0.00056   0.00000   0.00248   0.00246   3.14021
   D15        1.05968   0.00240   0.00000   0.01385   0.01383   1.07352
   D16        1.04234  -0.00144   0.00000  -0.00820  -0.00819   1.03415
   D17       -1.05994  -0.00232   0.00000  -0.01370  -0.01369  -1.07363
   D18       -3.13801  -0.00048   0.00000  -0.00233  -0.00231  -3.14032
   D19       -3.14066  -0.00007   0.00000  -0.00038  -0.00038  -3.14104
   D20        0.00072  -0.00002   0.00000   0.00002   0.00002   0.00074
   D21       -1.03997   0.00036   0.00000   0.00266   0.00265  -1.03732
   D22        2.10142   0.00041   0.00000   0.00305   0.00305   2.10446
   D23        1.03950  -0.00038   0.00000  -0.00304  -0.00303   1.03646
   D24       -2.10230  -0.00034   0.00000  -0.00264  -0.00264  -2.10494
   D25       -0.00023  -0.00045   0.00000  -0.00356  -0.00348  -0.00370
   D26        3.14095   0.00048   0.00000   0.00385   0.00377  -3.13846
   D27        3.14157  -0.00050   0.00000  -0.00395  -0.00387   3.13770
   D28       -0.00043   0.00044   0.00000   0.00346   0.00338   0.00295
   D29       -3.14146   0.00018   0.00000   0.00147   0.00132  -3.14014
   D30       -0.00029   0.00113   0.00000   0.00902   0.00917   0.00888
   D31        0.18671   0.00011   0.00000   0.00078   0.00079   0.18750
   D32       -2.95480  -0.00069   0.00000  -0.00585  -0.00585  -2.96065
   D33        3.14155  -0.00105   0.00000  -0.00858  -0.00859   3.13296
   D34       -0.00031  -0.00032   0.00000  -0.00268  -0.00273  -0.00304
   D35       -0.00012  -0.00024   0.00000  -0.00193  -0.00192  -0.00204
   D36        3.14121   0.00048   0.00000   0.00398   0.00394  -3.13804
   D37       -3.14145   0.00068   0.00000   0.00564   0.00559  -3.13586
   D38       -0.00003   0.00076   0.00000   0.00626   0.00623   0.00620
   D39        0.00022  -0.00006   0.00000  -0.00054  -0.00051  -0.00030
   D40       -3.14155   0.00002   0.00000   0.00008   0.00013  -3.14142
   D41       -0.00006   0.00018   0.00000   0.00150   0.00151   0.00145
   D42        3.14152   0.00007   0.00000   0.00054   0.00055  -3.14112
   D43       -3.14140  -0.00050   0.00000  -0.00410  -0.00415   3.13763
   D44        0.00018  -0.00062   0.00000  -0.00506  -0.00511  -0.00493
   D45       -0.00014   0.00043   0.00000   0.00344   0.00348   0.00334
   D46        3.14145   0.00045   0.00000   0.00357   0.00361  -3.13812
   D47       -3.14156   0.00035   0.00000   0.00283   0.00284  -3.13872
   D48        0.00003   0.00037   0.00000   0.00295   0.00297   0.00300
   D49       -0.00005  -0.00049   0.00000  -0.00387  -0.00384  -0.00388
   D50       -3.14157   0.00020   0.00000   0.00157   0.00161  -3.13996
   D51        3.14155  -0.00050   0.00000  -0.00399  -0.00397   3.13758
   D52        0.00003   0.00018   0.00000   0.00144   0.00148   0.00150
   D53        0.00014   0.00018   0.00000   0.00142   0.00140   0.00154
   D54       -3.14144   0.00030   0.00000   0.00237   0.00235  -3.13909
   D55       -3.14152  -0.00052   0.00000  -0.00414  -0.00410   3.13756
   D56        0.00009  -0.00040   0.00000  -0.00318  -0.00315  -0.00306
   D57       -0.71453   0.00385   0.00000   0.03338   0.03336  -0.68117
   D58        2.42698   0.00357   0.00000   0.03099   0.03097   2.45795
   D59        2.42705   0.00373   0.00000   0.03241   0.03243   2.45949
   D60       -0.71462   0.00346   0.00000   0.03002   0.03004  -0.68458
         Item               Value     Threshold  Converged?
 Maximum Force            0.114251     0.000450     NO 
 RMS     Force            0.017824     0.000300     NO 
 Maximum Displacement     0.232761     0.001800     NO 
 RMS     Displacement     0.071694     0.001200     NO 
 Predicted change in Energy=-3.963155D-02
 GradGradGradGradGradGradGradGradGradGradGradGradGradGradGradGradGradGrad

                          Input orientation:                          
 ---------------------------------------------------------------------
 Center     Atomic      Atomic             Coordinates (Angstroms)
 Number     Number       Type             X           Y           Z
 ---------------------------------------------------------------------
      1          6           0       11.935353    0.083948   -7.447053
      2          6           0       10.790624   -0.223639   -6.482547
      3          6           0       10.626519    0.894631   -5.458780
      4          7           0        9.530753    0.601589   -4.552081
      5          6           0        9.180249    1.451372   -3.542169
      6          8           0        9.825199    2.511308   -3.392137
      7          7           0        8.138845    1.031180   -2.782277
      8          6           0        7.648826    1.774343   -1.711644
      9          6           0        7.999536    3.107622   -1.412854
     10          6           0        6.718888    1.139857   -0.861918
     11          6           0        6.160407    1.794210    0.235085
     12          6           0        6.504701    3.109084    0.525504
     13          6           0        7.424964    3.749296   -0.307022
     14          1           0       12.035169   -0.718551   -8.191936
     15          1           0       12.888264    0.174819   -6.903546
     16          1           0       10.990590   -1.173359   -5.960325
     17          1           0        9.855586   -0.331985   -7.055582
     18          1           0       10.428054    1.843141   -5.985389
     19          1           0       11.562144    1.004908   -4.885520
     20          1           0        9.007564   -0.263706   -4.672338
     21          1           0        8.701570    3.659219   -2.018893
     22          1           0        6.428339    0.114264   -1.064468
     23          1           0        5.450816    1.275940    0.869793
     24          7           0        7.787832    5.088373   -0.021716
     25          1           0        6.069865    3.615670    1.380663
     26          8           0        8.990870    5.460604   -0.170433
     27          8           0        6.907907    5.909348    0.378399
     28          1           0       11.738965    1.020595   -7.960866
 ---------------------------------------------------------------------
                    Distance matrix (angstroms):
                    1          2          3          4          5
     1  C    0.000000
     2  C    1.528164   0.000000
     3  C    2.514654   1.524978   0.000000
     4  N    3.798805   2.448464   1.452129   0.000000
     5  C    4.970771   3.747638   2.464763   1.365616   0.000000
     6  O    5.175633   4.238233   2.743496   2.253707   1.249774
     7  N    6.088584   4.722129   3.656615   2.292196   1.355920
     8  C    7.357083   6.051805   4.866372   3.603483   2.408400
     9  C    7.813118   6.677519   5.307342   4.298787   2.944695
    10  C    8.467022   7.073163   6.038283   4.670506   3.652272
    11  C    9.761672   8.404594   7.292153   5.974825   4.848157
    12  C   10.109654   8.865042   7.596370   6.420778   5.143203
    13  C    9.206434   8.077685   6.703706   5.688843   4.339085
    14  H    1.099463   2.171599   3.472290   4.611227   5.871922
    15  H    1.100771   2.176259   2.778664   4.121214   5.165058
    16  H    2.164200   1.102122   2.158861   2.695314   4.001753
    17  H    2.156776   1.102000   2.156085   2.691578   3.997563
    18  H    2.739191   2.156432   1.102894   2.097849   2.771250
    19  H    2.747527   2.157560   1.102807   2.097712   2.770802
    20  H    4.048686   2.541213   2.140386   1.018294   2.061212
    21  H    7.259810   6.274149   4.814686   4.056315   2.724719
    22  H    8.430037   6.964143   6.127289   4.693176   3.936987
    23  H   10.613199   9.209734   8.184384   6.818897   5.779694
    24  N    9.868223   8.886876   7.430160   6.610084   5.249780
    25  H   11.171642   9.942632   8.657085   7.500659   6.212322
    26  O    9.514600   8.682887   7.175658   6.565085   5.241986
    27  O   10.974890   9.988073   8.546819   7.704626   6.356724
    28  H    1.086222   2.152416   2.741138   4.083085   5.124205
                    6          7          8          9         10
     6  O    0.000000
     7  N    2.325187   0.000000
     8  C    2.846712   1.392360   0.000000
     9  C    2.757933   2.491252   1.410640   0.000000
    10  C    4.234625   2.390789   1.410458   2.411574   0.000000
    11  C    5.205926   3.687940   2.450620   2.796989   1.394092
    12  C    5.170198   4.234328   2.845239   2.447808   2.418402
    13  C    4.100204   3.744953   2.433827   1.401693   2.759642
    14  H    6.193063   6.892554   8.212717   8.768232   9.243684
    15  H    5.212634   6.346274   7.547585   7.915093   8.688716
    16  H    4.640097   4.805458   6.156917   6.924789   7.042171
    17  H    4.637464   4.802765   6.153380   6.864124   7.096948
    18  H    2.744966   4.019911   5.098406   5.329605   6.364156
    19  H    2.741608   4.017872   5.097017   5.401203   6.297993
    20  H    3.163565   2.450252   3.842594   4.796479   4.661259
    21  H    2.113301   2.793923   2.180695   1.079071   3.408344
    22  H    4.764716   2.591801   2.159696   3.398562   1.085028
    23  H    6.231003   4.541258   3.426875   3.880916   2.150662
    24  N    4.706576   4.919829   3.722630   2.429703   4.176046
    25  H    6.172663   5.318866   3.930135   3.432999   3.402947
    26  O    4.446777   5.212243   4.214847   2.839521   4.930407
    27  O    5.854418   5.941516   4.692068   3.499987   4.931750
    28  H    5.172815   6.307040   7.506674   7.824032   8.695428
                   11         12         13         14         15
    11  C    0.000000
    12  C    1.389883   0.000000
    13  C    2.390679   1.396372   0.000000
    14  H   10.575513  11.010478  10.167965   0.000000
    15  H    9.942160  10.224998   9.281092   1.784889   0.000000
    16  H    8.397633   8.973768   8.300968   2.505610   2.511656
    17  H    8.445642   8.974534   8.252747   2.488236   3.078490
    18  H    7.543838   7.706299   6.700435   3.743519   3.111100
    19  H    7.484808   7.699641   6.753560   3.758517   2.553444
    20  H    6.035240   6.682634   6.137165   4.664852   4.497825
    21  H    3.875072   3.406294   2.137367   8.269475   7.316372
    22  H    2.140758   3.391576   3.844534   9.106642   8.707993
    23  H    1.083964   2.142341   3.376336  11.377462  10.814477
    24  N    3.683200   2.421458   1.416404  10.886355   9.875070
    25  H    2.153663   1.084900   2.168509  12.083252  11.267571
    26  O    4.649560   3.492136   2.323638  10.573279   9.405532
    27  O    4.184932   2.832966   2.324430  11.986180  11.030695
    28  H    9.944466  10.187138   9.199877   1.779258   1.775993
                   16         17         18         19         20
    16  H    0.000000
    17  H    1.787661   0.000000
    18  H    3.068607   2.490824   0.000000
    19  H    2.495341   3.067376   1.788437   0.000000
    20  H    2.533530   2.530544   2.860191   2.860193   0.000000
    21  H    6.642915   6.529143   4.691693   4.842087   4.745919
    22  H    6.814802   6.916546   6.572838   6.461396   4.451066
    23  H    9.129002   9.208637   8.490473   8.399132   6.762854
    24  N    9.205109   9.117629   7.284758   7.387605   7.194497
    25  H   10.051788  10.054148   8.740389   8.731910   7.766496
    26  O    9.029463   9.039198   6.997518   6.978304   7.282524
    27  O   10.344683  10.144315   8.332063   8.568798   8.247733
    28  H    3.061971   2.489203   2.509498   3.080465   4.463675
                   21         22         23         24         25
    21  H    0.000000
    22  H    4.318010   0.000000
    23  H    4.959025   2.458945   0.000000
    24  N    2.620326   5.260923   4.559723   0.000000
    25  H    4.299389   4.285675   2.473569   2.662129   0.000000
    26  O    2.597207   5.995767   5.579020   1.268059   3.787077
    27  O    3.745305   5.991231   4.881911   1.268212   2.639660
    28  H    7.176013   8.751257  10.843734   9.756453  11.231085
                   26         27         28
    26  O    0.000000
    27  O    2.200301   0.000000
    28  H    9.378516  10.806589   0.000000
 Stoichiometry    C10H12N3O3(1-)
 Framework group  C1[X(C10H12N3O3)]
 Deg. of freedom    78
 Full point group                 C1      NOp   1
 Largest Abelian subgroup         C1      NOp   1
 Largest concise Abelian subgroup C1      NOp   1
                         Standard orientation:                         
 ---------------------------------------------------------------------
 Center     Atomic      Atomic             Coordinates (Angstroms)
 Number     Number       Type             X           Y           Z
 ---------------------------------------------------------------------
      1          6           0        6.322479   -0.868749    0.025163
      2          6           0        5.214595    0.180316    0.110852
      3          6           0        3.840396   -0.467829   -0.019704
      4          7           0        2.791888    0.532515    0.073153
      5          6           0        1.469108    0.204488   -0.013782
      6          8           0        1.152490   -0.992718   -0.182262
      7          7           0        0.616100    1.253547    0.088059
      8          6           0       -0.766242    1.100185    0.022665
      9          6           0       -1.455539   -0.129928    0.062630
     10          6           0       -1.538230    2.275707   -0.084920
     11          6           0       -2.930245    2.237132   -0.150490
     12          6           0       -3.607494    1.024183   -0.107327
     13          6           0       -2.855640   -0.147748   -0.001731
     14          1           0        7.308356   -0.395257    0.137726
     15          1           0        6.293838   -1.386434   -0.945856
     16          1           0        5.346788    0.925732   -0.690117
     17          1           0        5.281917    0.697338    1.081707
     18          1           0        3.712788   -1.213823    0.782533
     19          1           0        3.772270   -0.986710   -0.990428
     20          1           0        3.050161    1.508377    0.206989
     21          1           0       -0.933499   -1.070508    0.147344
     22          1           0       -1.038167    3.238055   -0.118251
     23          1           0       -3.493033    3.159585   -0.236088
     24          7           0       -3.531873   -1.391592    0.040242
     25          1           0       -4.690763    0.996669   -0.160044
     26          8           0       -3.050389   -2.391633   -0.572998
     27          8           0       -4.613868   -1.500236    0.692809
     28          1           0        6.191545   -1.604165    0.813768
 ---------------------------------------------------------------------
 Rotational constants (GHZ):      1.2294462      0.2016992      0.1756068
 Basis read from rwf:  (6D, 7F)
 There are   328 symmetry adapted cartesian basis functions of A   symmetry.
 There are   328 symmetry adapted basis functions of A   symmetry.
   328 basis functions,   560 primitive gaussians,   328 cartesian basis functions
    59 alpha electrons       59 beta electrons
       nuclear repulsion energy      1022.2290398670 Hartrees.
 NAtoms=   28 NActive=   28 NUniq=   28 SFac= 1.00D+00 NAtFMM=   60 NAOKFM=F Big=F
 Integral buffers will be    131072 words long.
 Raffenetti 2 integral format.
 Two-electron integral symmetry is turned on.
 ------------------------------------------------------------------------------
 Polarizable Continuum Model (PCM)
 =================================
[...]
 0000398,-0.00000133,-0.00056329,-0.00062418,-0.00073931,0.03957802,0.0
 0000342,0.00000532,0.00000589,-0.00001646,-0.00000901,-0.00000167,0.00
 003593,0.00001737,0.00000750,-0.00012692,-0.00002597,0.00015041,0.0003
 5758,0.00051441,-0.00009069,0.00005165,0.00004618,0.00003690,0.0012965
 9,0.00123800,-0.00112506,-0.00080606,-0.01230025,-0.00528496,-0.002590
 14,-0.00077434,0.00206680,-0.04140714,-0.33698971,-0.03720780,-0.00261
 319,-0.00815916,0.00008663,0.00021471,0.00136464,-0.00275232,-0.000274
 22,0.00077375,0.00063220,-0.00000285,0.00000079,0.00000215,-0.00000091
 ,0.00000034,-0.00000018,0.00000106,0.00000281,-0.00000013,0.00000060,0
 .00000003,0.00000204,-0.00000670,0.00000146,0.00000421,-0.00001161,0.0
 0000209,-0.00000197,-0.00000573,-0.00001565,-0.00001726,0.00025509,-0.
 00063651,-0.00022948,0.04480747,0.35514748,0.00000060,0.00000033,0.000
 00145,-0.00000538,-0.00000073,0.00000169,0.00003033,-0.00001966,0.0000
 2950,0.00002086,-0.00006992,-0.00002592,-0.00032205,0.00007958,0.00007
 850,-0.00005360,-0.00003934,-0.00001757,-0.00181384,0.00091617,0.00103
 881,0.00421339,0.02014298,0.00578543,0.00430414,0.00154079,-0.00136541
 ,0.00276978,-0.03879040,-0.05774098,-0.00349345,-0.02546758,0.00072622
 ,0.00489817,-0.00237585,-0.00184643,0.00084358,0.00016947,-0.00109726,
 -0.00000070,0.00000023,0.00000024,-0.00000070,0.00000034,0.,0.00000032
 ,-0.00000049,-0.00000068,-0.00000033,-0.00000035,-0.00000115,-0.000006
 24,-0.00000097,0.00000152,0.00000386,0.00000218,-0.00000793,-0.0000180
 4,-0.00001090,-0.00002116,-0.00029880,0.00106539,0.00003499,-0.0079141
 9,0.04306615,0.05457161,0.00000293,0.00000481,0.00000459,-0.00001653,-
 0.00000728,-0.00000115,0.00004478,0.00000971,0.00000628,-0.00008358,0.
 00000554,0.00015577,0.00022824,0.00036448,-0.00017204,-0.00016738,-0.0
 0017399,-0.00000202,-0.00079693,-0.00011228,0.00064392,0.00591359,0.00
 045620,0.00353077,-0.00059061,0.00032439,-0.00035777,-0.00149605,-0.00
 716432,0.00752970,-0.11680518,-0.08249257,0.10604402,0.00239793,-0.000
 89118,0.00235726,0.00538507,-0.00136162,0.00180329,-0.00000279,0.00000
 073,0.00000204,-0.00000087,0.00000023,-0.00000021,0.00000102,0.0000010
 5,-0.00000019,0.00000100,-0.00000024,0.00000015,-0.00000819,-0.0000011
 1,0.00000377,-0.00001280,0.00000262,-0.00000130,-0.00001425,-0.0000052
 4,-0.00001366,-0.00045683,0.00004722,-0.00028494,-0.00301995,0.0008620
 9,-0.00237986,0.11220786,-0.00000006,-0.00000040,-0.00000120,0.0000036
 1,-0.00000042,-0.00000241,-0.00000016,0.00000092,-0.00003215,0.0000631
 5,0.00001443,0.00007714,0.00018064,0.00006211,-0.00040841,-0.00005064,
 -0.00006088,0.00002015,0.00027736,0.00048547,0.00009559,-0.00000240,-0
 .00119961,-0.00330344,0.00037996,-0.00013599,-0.00033106,0.00789694,0.
 01178928,-0.01122339,-0.08240491,-0.14545376,0.10573227,-0.01562307,-0
 .01229387,0.02150481,-0.00046398,-0.00422921,-0.00297663,0.00000018,0.
 00000007,0.00000012,-0.00000010,0.00000005,0.00000005,0.00000005,0.000
 00033,0.00000007,0.00000006,-0.00000001,0.00000064,-0.00000027,0.00000
 130,0.00000062,-0.00000789,0.00000199,0.00000363,-0.00000299,0.0000020
 4,-0.00000190,0.00006234,0.00009356,0.00016178,0.00048763,0.00057723,0
 .00095046,0.08932171,0.15004151,-0.00000649,-0.00001011,-0.00001177,0.
 00003507,0.00001220,0.00000639,-0.00007906,-0.00007067,0.00001780,0.00
 025018,-0.00001581,-0.00033235,-0.00081244,-0.00033553,0.00000687,0.00
 031796,0.00023446,-0.00001643,0.00112879,0.00068802,-0.00129789,0.0035
 0960,-0.00351318,0.00040259,-0.00025622,-0.00097048,-0.00066245,0.0124
 8633,0.01520500,-0.01223097,0.10620076,0.10582408,-0.18698401,-0.00293
 721,-0.00443137,0.00749173,0.00212259,-0.00149952,0.00234067,0.0000060
 4,-0.00000103,-0.00000449,0.00000089,-0.00000017,0.00000034,-0.0000012
 8,-0.00000279,-0.00000034,-0.00000276,0.00000070,-0.00000142,0.0000101
 5,0.00000478,-0.00000315,0.00003154,-0.00000741,-0.00000666,0.00002098
 ,0.00001552,0.00002349,-0.00027171,0.00013248,-0.00012518,-0.00251414,
 0.00045864,-0.00007822,-0.11714892,-0.11192778,0.19153654,0.00000418,0
 .00001109,0.00000884,-0.00003264,-0.00000813,-0.00000660,0.00009874,0.
 00005531,-0.00002569,-0.00016045,0.00004402,0.00040393,0.00106499,0.00
 060672,-0.00077372,-0.00041117,-0.00050584,0.00006513,-0.00067789,0.00
 116928,0.00127659,0.00708280,0.00091388,0.00566413,0.00289638,0.009605
 13,-0.00737117,-0.00210297,0.00040148,0.00093433,0.00404266,-0.0023831
 0,0.00737320,-0.00361417,-0.01771890,-0.00682779,-0.09012308,-0.005409
 15,0.01275920,-0.00000556,0.00000012,0.00000277,-0.00000089,0.00000108
 ,0.00000006,0.00000046,-0.00000191,-0.00000030,0.00000274,-0.00000057,
 0.00000064,-0.00001811,-0.00000880,0.00000901,-0.00003569,0.00000747,0
 .00000241,-0.00004153,-0.00003658,-0.00003261,-0.00481194,-0.00069354,
 -0.00071139,-0.00096347,0.00020926,-0.00043267,0.00078497,-0.00092870,
 0.00009663,0.46411085,0.00003153,0.00005711,0.00005520,-0.00017057,-0.
 00006321,-0.00004451,0.00049679,0.00031792,-0.00025593,-0.00069500,0.0
 0026385,0.00253282,0.00435805,0.00219598,-0.00359005,-0.00277602,-0.00
 126920,0.00098513,-0.00452111,-0.00004603,0.00692355,0.00687306,0.0091
 5591,-0.01169104,0.00971535,-0.03831170,-0.02653802,0.00076008,0.00201
 141,-0.00090801,-0.00543845,0.01142508,0.01038643,-0.01580689,-0.04428
 145,0.01160208,-0.00645875,-0.12315625,-0.00227195,-0.00003340,0.00000
 587,0.00002439,-0.00000537,0.00000099,0.00000073,0.00000726,0.00000918
 ,0.00000389,0.00001529,-0.00000131,0.00000717,-0.00007681,0.00000103,0
 .00004032,-0.00021932,0.00004615,0.00002631,-0.00015611,-0.00007338,-0
 .00012362,-0.00112437,-0.00106567,0.00197410,0.00012856,0.00019921,0.0
 0015527,0.00045150,0.00033294,-0.00084495,0.06680290,0.67072845,0.0000
 0101,0.00000318,0.00000388,-0.00000508,-0.00000235,-0.00000632,0.00003
 122,0.00003041,-0.00002618,0.00003422,0.00014159,0.00013574,-0.0003478
 6,-0.00043676,-0.00027898,-0.00028023,0.00050557,0.00049453,-0.0002713
 2,-0.00098197,0.00028092,0.00700494,-0.00353124,-0.00346902,-0.0080785
 3,-0.02900789,0.00233367,0.00129425,0.00016697,-0.00406247,0.00674133,
 0.00580945,-0.00075322,-0.00675790,0.01733815,0.01314544,0.01445767,-0
 .00467031,-0.10818820,-0.00000203,0.00000138,0.00000324,-0.00000124,-0
 .00000047,-0.00000053,0.00000050,0.00000524,0.00000145,-0.00000034,-0.
 00000028,0.00000119,0.00000470,0.00000101,-0.00000887,-0.00001551,-0.0
 0000205,0.00000499,-0.00001155,0.00001808,0.00002602,-0.00064091,0.002
 19129,-0.00305872,-0.00044104,0.00021138,-0.00044642,0.00061718,0.0013
 6000,0.00066578,-0.31867453,0.03286954,0.72637076,-0.00000158,-0.00000
 121,-0.00000255,0.00000386,0.00000203,0.00000357,0.00000874,-0.0000290
 9,0.00002389,0.00006376,-0.00006482,-0.00004523,-0.00047611,-0.0000937
 8,0.00008907,0.00027542,0.00008322,-0.00010646,0.00001249,0.00036831,-
 0.00052829,-0.00111247,0.00005286,-0.00030594,0.00245045,-0.00328473,0
 .00250505,0.00504802,-0.00199129,0.00245045,0.00569986,-0.00259534,-0.
 00438642,-0.08000900,0.04612893,0.10058900,-0.00228799,0.00724949,0.01
 151345,0.00000116,-0.00000022,-0.00000097,-0.00000033,0.00000010,-0.00
 000001,-0.00000019,-0.00000022,-0.00000040,-0.00000152,-0.00000013,-0.
 00000155,0.00000117,0.00000480,0.00000116,0.00000909,-0.00000277,-0.00
 001664,0.00001430,-0.00001248,0.00000080,0.00082647,0.00021033,0.00108
 550,0.00015301,-0.00015987,-0.00021783,-0.00306384,0.00104159,-0.00193
 873,-0.00366226,0.00212520,-0.00081032,0.07473473,0.00000071,0.0000009
 8,0.00000104,-0.00000169,-0.00000120,-0.00000170,0.00000794,0.00000940
 ,-0.00001259,0.00000121,0.00002888,0.00006414,0.00009633,-0.00001703,-
 0.00017643,-0.00014608,0.00009897,0.00011285,0.00010559,0.00023765,0.0
 0010444,-0.00009555,-0.00103808,0.00015935,-0.00230826,-0.00205516,0.0
 0198120,-0.00240369,-0.00450544,0.00015327,0.01157364,-0.00754634,-0.0
 2445451,0.04666982,-0.11694982,-0.11413416,-0.00546521,0.01193774,0.01
 301966,-0.00000070,0.00000011,0.00000049,-0.00000004,-0.00000003,0.000
 00007,0.00000012,0.00000044,0.00000041,0.00000040,0.00000006,0.0000004
 8,-0.00000157,-0.00000049,0.,-0.00000580,0.00000109,0.00000377,-0.0000
 0680,0.00000370,-0.00000111,-0.00040608,0.00062860,0.00055698,0.000553
 72,-0.00041930,-0.00113158,0.00071910,0.00143756,0.00086287,0.00141540
 ,-0.00050371,-0.00098888,-0.04893574,0.12214539,-0.00000101,-0.0000006
 2,-0.00000057,0.00000083,0.,0.00000114,-0.00000172,-0.00000688,-0.0000
 0372,0.00001729,-0.00004611,0.00001087,-0.00005176,0.00022756,-0.00003
 347,0.00024912,-0.00021991,-0.00017362,-0.00020050,0.00017752,0.000114
 94,-0.00068899,0.00019174,-0.00009600,0.00284746,0.00307655,0.00016066
 ,0.00226305,-0.00026070,0.00266348,0.00062016,0.00036498,0.00282878,0.
 10120922,-0.11253455,-0.25259945,0.00643010,-0.01038213,-0.01213957,0.
 00000051,-0.00000024,-0.00000052,0.00000002,-0.00000002,0.00000019,-0.
 00000008,-0.00000037,-0.00000045,-0.00000057,-0.00000020,-0.00000109,0
 .00000075,0.00000143,0.00000102,-0.00000048,0.00000057,-0.00000539,0.0
 0000687,-0.00000723,-0.00000471,0.00066763,-0.00067251,-0.00008822,0.0
 0003382,0.00012338,0.00003920,-0.00205660,0.00027986,-0.00065596,-0.00
 071980,-0.00144322,-0.00334518,-0.10908713,0.12269204,0.26050903,-0.00
 000483,-0.00000982,-0.00000914,0.00002849,0.00000982,0.00000569,-0.000
 08313,-0.00005452,0.00003738,0.00011132,-0.00004340,-0.00039826,-0.000
 73877,-0.00045649,0.00057910,0.00041064,0.00026021,-0.00015136,0.00080
 890,-0.00020722,-0.00109857,-0.00158637,-0.00049691,0.00051674,-0.0010
 9349,0.00405942,0.00487127,-0.00000437,0.00016051,0.00078448,-0.000662
 67,-0.00219569,-0.00139754,0.00517455,0.00039196,-0.00207542,0.0036387
 5,-0.02729412,0.01560365,0.00000520,-0.00000029,-0.00000302,0.00000104
 ,-0.00000091,-0.00000017,-0.00000063,0.00000041,-0.00000072,-0.0000023
 3,-0.00000011,-0.00000088,0.00001385,0.00000324,-0.00000806,0.00003504
 ,-0.00000775,-0.00000334,0.00002832,0.00001368,0.00002174,0.00143548,0
 .00079374,-0.00063075,0.00014738,-0.00007076,-0.00004993,-0.00047494,-
 0.00027909,-0.00022028,-0.21169249,-0.13765841,0.15663661,0.00017776,0
 .00012932,-0.00040107,0.23446160,-0.00001599,-0.00002904,-0.00002775,0
 .00008537,0.00003242,0.00002310,-0.00024019,-0.00016267,0.00012980,0.0
 0037023,-0.00012632,-0.00126718,-0.00236524,-0.00101146,0.00197092,0.0
 0150916,0.00060497,-0.00054373,0.00192730,-0.00078755,-0.00325193,-0.0
 0189437,0.00166995,0.00463299,-0.00327497,-0.00346649,0.00229799,-0.00
 088284,-0.00085113,0.00152042,-0.00061237,-0.00492886,0.00027275,0.003
 96905,-0.00225835,-0.00885190,-0.03426503,-0.03972667,0.03336500,0.000
 01677,-0.00000264,-0.00001192,0.00000248,-0.00000074,-0.00000018,-0.00
 000345,-0.00000426,-0.00000220,-0.00000796,0.00000024,-0.00000471,0.00
 004051,0.00000624,-0.00001934,0.00010953,-0.00002419,-0.00002005,0.000
 08816,0.00003604,0.00007834,-0.00130898,-0.00337312,0.00063369,-0.0001
 3962,-0.00030699,-0.00003882,-0.00015123,-0.00112726,-0.00004051,-0.12
 499624,-0.25776392,0.13123158,-0.00017974,0.00059351,0.00005050,0.1635
 5907,0.26068343,0.00000258,0.00000390,0.00000349,-0.00001169,-0.000003
 24,-0.00000213,0.00002440,0.00002782,-0.00001884,-0.00005261,-0.000006
 97,0.00014904,0.00035845,0.00031119,-0.00012332,-0.00009515,-0.0002289
 8,-0.00002351,-0.00039584,-0.00010551,0.00059933,-0.00011949,0.0019282
 7,-0.00016420,0.00249880,-0.00767635,-0.00639843,0.00033567,-0.0005549
 6,-0.00043780,-0.00128728,0.00214952,0.00144228,-0.00040526,-0.0027808
 0,0.00342510,0.01308614,0.02259507,0.00707766,-0.00000193,-0.00000022,
 0.00000065,0.00000026,0.00000022,0.00000055,-0.00000002,-0.00000200,-0
 .00000018,0.00000179,0.00000052,0.00000143,-0.00000651,-0.00000171,0.0
 0000625,-0.00001267,0.00000377,0.00000117,-0.00000605,-0.00000487,-0.0
 0000860,-0.00160663,-0.00303771,0.00213390,-0.00005950,-0.00005534,0.0
 0021359,-0.00014330,0.00022137,-0.00017018,0.16084621,0.14995428,-0.27
 264931,-0.00016632,-0.00013559,0.00072362,-0.25771040,-0.17129331,0.36
 033688,0.00000253,0.00000527,0.00000396,-0.00001324,-0.00000704,-0.000
 00227,0.00004767,0.00000980,-0.00001120,-0.00002965,0.00002139,0.00022
 299,0.00026494,0.00009774,-0.00020662,-0.00026358,0.00002235,0.0000835
 6,-0.00054353,-0.00008094,0.00031852,0.00007946,0.00117372,-0.00141522
 ,0.00342317,-0.00166246,-0.00066380,0.00020388,-0.00036620,-0.00037331
 ,-0.00045144,0.00157308,0.00012227,-0.00169697,-0.00586426,0.00270595,
 0.01509144,0.01268463,0.01087712,-0.00000281,0.00000089,0.00000252,-0.
 00000058,-0.00000034,-0.00000008,0.00000103,0.00000214,0.00000046,0.00
 000063,-0.00000027,0.00000058,-0.00000667,0.00000467,0.00000394,-0.000
 01572,0.00000365,-0.00000046,-0.00001857,-0.00000618,-0.00000983,0.000
 35598,0.00014501,-0.00044495,0.00007137,-0.00000284,-0.00007741,0.0000
 4355,0.00004921,-0.00002902,-0.16173243,0.08338092,0.14951413,0.001134
 64,-0.00149599,-0.00113736,-0.03013579,-0.00134277,0.08492766,0.174190
 82,-0.00001720,-0.00003158,-0.00003160,0.00009760,0.00003836,0.0000257
 2,-0.00028696,-0.00015944,0.00013573,0.00041647,-0.00012448,-0.0014454
 2,-0.00277293,-0.00138344,0.00225016,0.00152963,0.00086690,-0.00031631
 ,0.00226611,-0.00130954,-0.00400228,-0.00187956,-0.00259090,0.00249408
 ,-0.00552341,-0.00382550,0.00709124,0.00122936,-0.00087904,-0.00224420
 ,0.00113739,0.00026611,-0.00165942,0.00132270,-0.00366817,-0.00245040,
 0.01964355,-0.03470361,-0.04617060,0.00001902,-0.00000373,-0.00001419,
 0.00000329,-0.00000032,-0.00000018,-0.00000459,-0.00000723,-0.00000192
 ,-0.00000826,0.00000151,-0.00000366,0.00004674,0.00000042,-0.00002283,
 0.00012431,-0.00002902,-0.00001615,0.00009977,0.00006167,0.00009348,0.
 00013499,0.00054778,0.00021527,0.00004730,-0.00025380,-0.00014249,-0.0
 0020984,-0.00033921,0.00023146,0.07145093,-0.23020669,-0.15226375,0.00
 008434,-0.00408740,-0.00161168,-0.00060802,0.05232017,0.00869315,-0.08
 834528,0.22949629,-0.00000805,-0.00001417,-0.00001705,0.00004596,0.000
 01645,0.00001280,-0.00013673,-0.00007308,0.00005142,0.00018943,-0.0000
 8426,-0.00063406,-0.00109653,-0.00035470,0.00098191,0.00074403,0.00023
 965,-0.00022067,0.00083444,-0.00043078,-0.00172493,-0.00232820,-0.0022
 4274,0.00180091,-0.00146218,0.00086703,0.00554775,0.00022707,0.0003278
 4,0.00010168,-0.00031916,-0.00227344,-0.00116239,0.00471220,0.00754154
 ,-0.00443769,0.01264306,-0.03508418,-0.00958173,0.00000909,-0.00000229
 ,-0.00000745,0.00000198,0.00000003,0.00000023,-0.00000267,-0.00000536,
 -0.00000102,-0.00000316,0.00000057,-0.00000173,0.00001885,-0.00000198,
 -0.00000686,0.00005530,-0.00001180,-0.00000341,0.00004359,0.00003468,0
 .00003467,-0.00017841,0.00001082,0.00094214,-0.00002965,-0.00008721,0.
 00012637,-0.00013678,-0.00020025,0.00008942,0.14613085,-0.16983234,-0.
 34717255,-0.00064719,0.00132347,0.00209507,0.08510390,0.00916836,-0.09
 611971,-0.24441151,0.19116716,0.44930601,-0.06974466,-0.07007274,0.019
 66257,-0.00932233,-0.02907711,0.00890684,0.00080980,-0.00108454,-0.000
 96524,-0.00001207,0.00020677,-0.00010766,0.00005315,0.00004200,-0.0001
 8821,0.00000390,0.00006150,0.00008575,-0.00003653,-0.00000608,0.000061
 58,0.00001208,-0.00002486,-0.00003136,0.00000063,0.00000979,0.00000706
 ,-0.00000640,0.00000082,0.00001126,-0.00000055,-0.00000233,-0.00000333
 ,-0.00000231,0.00000308,0.00000509,0.00000143,0.00000038,-0.00000288,-
 0.00102533,-0.00039239,-0.00022647,0.00714077,0.02093008,-0.00461611,-
 0.00536995,0.00055573,0.00329184,0.00135220,0.00000245,-0.00088108,0.0
 0019138,0.00054196,0.00011884,0.00000394,0.00007561,0.00009585,0.00016
 153,0.00005796,-0.00011606,-0.00000005,-0.00000138,0.00000094,0.000000
 96,-0.00000008,-0.00000002,-0.00000022,-0.00000017,0.00000075,-0.00000
 202,-0.00000594,0.00000062,0.00000036,-0.00000011,0.00000024,0.0000015
 0,0.00000337,-0.00000131,-0.00000012,0.00000255,0.00000049,0.07578891,
 -0.07126001,-0.27649816,0.06731263,0.00047388,0.00186127,-0.00090736,0
 .00032884,0.00075421,-0.00031665,0.00017156,0.00041916,0.00015329,-0.0
 0001403,-0.00009967,-0.00012090,-0.00001320,0.00005689,0.00007569,-0.0
 0005638,0.00002242,0.00009665,0.00000895,-0.00003048,-0.00003045,-0.00
 000200,0.00001299,0.00000618,-0.00000809,0.00000268,0.00001456,-0.0000
 0038,-0.00000368,-0.00000388,-0.00000275,0.00000434,0.00000630,0.00000
 173,0.00000054,-0.00000227,-0.00439652,-0.01601133,0.00543004,-0.00287
 966,-0.00994065,0.00211685,0.00006292,0.00131542,-0.00049856,-0.000477
 72,0.00048623,-0.00000751,-0.00000284,0.00009559,0.00046573,-0.0001385
 4,-0.00000634,0.00002215,0.00003099,-0.00010898,-0.00013302,-0.0000006
 3,-0.00000164,0.00000042,0.00000078,-0.00000043,-0.00000023,-0.0000004
 7,-0.00000017,0.00000109,-0.00000262,-0.00000858,0.00000111,0.00000021
 ,-0.00000008,0.00000025,0.00000216,0.00000471,-0.00000152,0.00000011,0
 .00000389,0.00000098,0.07817369,0.29766985,0.01998677,0.06683982,-0.06
 831545,0.00368847,0.01275070,-0.00474383,-0.00014275,0.00105659,0.0004
 8416,0.00006629,-0.00007796,-0.00004721,-0.00000866,-0.00001578,0.0000
 8414,-0.00003164,-0.00003209,-0.00002099,0.00000756,0.00000275,-0.0000
 1357,-0.00000398,0.00000670,0.00001477,0.00000234,-0.00000304,-0.00000
 173,0.00000162,0.00000079,-0.00000414,0.00000014,0.00000110,0.00000170
 ,0.00000069,-0.00000124,-0.00000085,-0.00000237,-0.00000088,-0.0000012
 1,-0.00787442,-0.02481924,0.00895495,0.00700524,0.01921421,-0.00547584
 ,0.00289082,-0.00038377,-0.00038457,-0.00041598,-0.00056003,0.00044028
 ,0.00009909,-0.00020513,-0.00010343,-0.00006425,-0.00002659,-0.0000663
 6,-0.00009472,-0.00006598,0.00002279,0.00000002,0.00000058,-0.00000014
 ,-0.00000038,-0.00000018,0.,0.00000003,0.00000005,-0.00000017,0.000002
 33,0.00000246,-0.00000165,0.00000002,0.00000001,-0.00000007,-0.0000016
 4,-0.00000191,0.00000129,-0.00000064,-0.00000038,0.00000087,-0.0251099
 9,-0.07368155,0.06917626\\0.00000159,0.00000668,0.00000291,0.00000544,
 0.00000549,-0.00000390,-0.00000002,0.00000937,0.00000268,0.00000220,0.
 00000070,0.00000331,-0.00001722,-0.00002029,-0.00000761,0.00001486,0.0
 0001489,0.00001025,0.00000530,0.00000670,-0.00001116,-0.00000605,-0.00
 000286,0.00001162,-0.00000108,0.00000017,0.00000010,0.00000246,-0.0000
 0614,-0.00001680,-0.00000822,0.00000346,0.00000421,-0.00000549,-0.0000
 1298,-0.00000405,-0.00000107,-0.00000363,-0.00000124,0.00000521,0.0000
 0692,-0.00000004,0.00000426,0.00000290,0.00000160,0.00000287,0.0000034
 9,-0.00000259,0.00000504,0.00000697,-0.00000146,0.00000375,0.00000402,
 0.00000465,0.00000077,-0.00000075,0.00000128,0.00000201,0.00000016,-0.
 00000456,-0.00000044,-0.00000289,0.00000261,-0.00000621,-0.00000195,-0
 .00000556,-0.00000725,-0.00000647,-0.00000730,-0.00000101,0.00000389,0
 .00000751,-0.00000435,-0.00000801,-0.00000026,-0.00000150,-0.00000747,
 0.00000797,-0.00000191,-0.00000712,0.00000130,0.00000605,0.00000475,0.
 00000455\\\@


 IN SO FAR AS QUANTUM MECHANICS IS CORRECT, CHEMICAL 
 QUESTIONS ARE PROBLEMS IN APPLIED MATHEMATICS.

                    -- EYRING, WALTER, & KIMBALL, 1944
 Job cpu time:       0 days  2 hours 28 minutes 36.7 seconds.
 File lengths (MBytes):  RWF=    408 Int=      0 D2E=      0 Chk=     17 Scr=      1
 Normal termination of Gaussian 09 at Tue Feb  5 12:22:17 2019.
WARNING: pbs_rusage is deprecated and values produced may not be accurate


=============================================================================
                                     Resource usage:
                                       CPU time:              10:38:04
   JobId:    5387203.r-man2            Elapsed time:          02:41:49
   Project:             q95            Requested time:        32:00:00
   Service Units:     10.79 
                                       Max physical memory:      548MB
                                       Max virtual memory:      1234MB
                                       Requested memory:           0MB

                                       Number of cpus:               4

                                       Max jobfs disk use:       0.4GB
                                       Requested jobfs:         16.0GB
=============================================================================

