 Entering Gaussian System, Link 0=/apps/gaussian/g09e01/g09/g09
 AtFile(1): /home/507/hio507/Basis/6-31pGd.gbs
 Initial command:
 /apps/gaussian/g09e01/g09/l1.exe "/jobfs/local/5387204.r-man2/Gau-47875.inp" -scrdir="/jobfs/local/5387204.r-man2/"
 Entering Link 1 = /apps/gaussian/g09e01/g09/l1.exe PID=     47876.
  
 Copyright (c) 1988,1990,1992,1993,1995,1998,2003,2009,2015,
            Gaussian, Inc.  All Rights Reserved.
  
 This is part of the Gaussian(R) 09 program.  It is based on
 the Gaussian(R) 03 system (copyright 2003, Gaussian, Inc.),
 the Gaussian(R) 98 system (copyright 1998, Gaussian, Inc.),
 the Gaussian(R) 94 system (copyright 1995, Gaussian, Inc.),
 the Gaussian 92(TM) system (copyright 1992, Gaussian, Inc.),
 the Gaussian 90(TM) system (copyright 1990, Gaussian, Inc.),
 the Gaussian 88(TM) system (copyright 1988, Gaussian, Inc.),
 the Gaussian 86(TM) system (copyright 1986, Carnegie Mellon
 University), and the Gaussian 82(TM) system (copyright 1983,
 Carnegie Mellon University). Gaussian is a federally registered
 trademark of Gaussian, Inc.
  
 This software contains proprietary and confidential information,
 including trade secrets, belonging to Gaussian, Inc.
  
 This software is provided under written license and may be
 used, copied, transmitted, or stored only in accord with that
 written license.
  
 The following legend is applicable only to US Government
 contracts under FAR:
  
                    RESTRICTED RIGHTS LEGEND
  
 Use, reproduction and disclosure by the US Government is
 subject to restrictions as set forth in subparagraphs (a)
 and (c) of the Commercial Computer Software - Restricted
 Rights clause in FAR 52.227-19.
  
 Gaussian, Inc.
 340 Quinnipiac St., Bldg. 40, Wallingford CT 06492
  
  
 ---------------------------------------------------------------
 Warning -- This program may not be used in any manner that
 competes with the business of Gaussian, Inc. or will provide
 assistance to any competitor of Gaussian, Inc.  The licensee
 of this program is prohibited from giving any competitor of
 Gaussian, Inc. access to this program.  By using this program,
 the user acknowledges that Gaussian, Inc. is engaged in the
 business of creating and licensing software in the field of
 computational chemistry and represents and warrants to the
 licensee that it is not a competitor of Gaussian, Inc. and that
 it will not use this program in any manner prohibited above.
 ---------------------------------------------------------------
  

 Cite this work as:
 Gaussian 09, Revision E.01,
 M. J. Frisch, G. W. Trucks, H. B. Schlegel, G. E. Scuseria, 
 M. A. Robb, J. R. Cheeseman, G. Scalmani, V. Barone, B. Mennucci, 
 G. A. Petersson, H. Nakatsuji, M. Caricato, X. Li, H. P. Hratchian, 
 A. F. Izmaylov, J. Bloino, G. Zheng, J. L. Sonnenberg, M. Hada, 
 M. Ehara, K. Toyota, R. Fukuda, J. Hasegawa, M. Ishida, T. Nakajima, 
 Y. Honda, O. Kitao, H. Nakai, T. Vreven, J. A. Montgomery, Jr., 
 J. E. Peralta, F. Ogliaro, M. Bearpark, J. J. Heyd, E. Brothers, 
 K. N. Kudin, V. N. Staroverov, T. Keith, R. Kobayashi, J. Normand, 
 K. Raghavachari, A. Rendell, J. C. Burant, S. S. Iyengar, J. Tomasi, 
 M. Cossi, N. Rega, J. M. Millam, M. Klene, J. E. Knox, J. B. Cross, 
 V. Bakken, C. Adamo, J. Jaramillo, R. Gomperts, R. E. Stratmann, 
 O. Yazyev, A. J. Austin, R. Cammi, C. Pomelli, J. W. Ochterski, 
 R. L. Martin, K. Morokuma, V. G. Zakrzewski, G. A. Voth, 
 P. Salvador, J. J. Dannenberg, S. Dapprich, A. D. Daniels, 
 O. Farkas, J. B. Foresman, J. V. Ortiz, J. Cioslowski, 
 and D. J. Fox, Gaussian, Inc., Wallingford CT, 2013.
 
 ******************************************
 Gaussian 09:  ES64L-G09RevE.01 30-Nov-2015
                 5-Feb-2019 
 ******************************************
 %chk=3Nitro.M062X_6-31pGd_opt_water.chk
 %mem=196608000
 %nproc=4
 Will use up to    4 processors via shared memory.
 ----------------------------------------------------------------------
 # M062X/Gen 6D SCF=Tight INT(grid=ultrafine) OPT IOP(2/17=4) SCRF=(SMD
 ,Solvent=h2o) maxdisk=2147483648
 ----------------------------------------------------------------------
 1/14=-1,18=20,19=15,26=4,38=1/1,3;
 2/9=110,12=2,17=4,18=5,40=1/2;
 3/5=7,8=2,11=2,16=1,25=1,30=1,70=32201,71=1,72=1,74=-55,75=-5/1,2,3;
 4//1;
 5/5=2,32=2,38=5,53=1/2;
 6/7=2,8=2,9=2,10=2,28=1/1;
 7//1,2,3,16;
 1/14=-1,18=20,19=15,26=4/3(2);
 2/9=110,17=4/2;
 99//99;
 2/9=110,17=4/2;
 3/5=7,6=1,8=2,11=2,16=1,25=1,30=1,70=32205,71=1,72=1,74=-55,75=-5,82=7/1,2,3;
 4/5=5,16=3,69=1/1;
 5/5=2,32=2,38=5,53=1/2;
 7//1,2,3,16;
 1/14=-1,18=20,19=15,26=4/3(-5);
 2/9=110,17=4/2;
 6/7=2,8=2,9=2,10=2,19=2,28=1/1;
 99/9=1/99;
 ------------------------------
 3Nitro.M062X_6-31pGd_opt_water
 ------------------------------
 Symbolic Z-matrix:
 Charge =  0 Multiplicity = 1
 C                     11.97353   0.06998  -7.49641 
 C                     10.83008  -0.25856  -6.54596 
 C                     10.64751   0.85508  -5.51071 
 N                     9.55093   0.55191  -4.60726 
 C                     9.1949    1.39704  -3.59849 
 O                     9.81339   2.43842  -3.4477 
 N                     8.15231   1.06187  -2.77634 
 C                     7.62173   1.80675  -1.66366 
 C                     7.96558   3.14696  -1.35419 
 C                     6.69693   1.15408  -0.82704 
 C                     6.13409   1.80092   0.27198 
 C                     6.48078   3.11726   0.56408 
 C                     7.39918   3.80577  -0.24356 
 H                     12.07976  -0.7353   -8.25348 
 H                     12.92873   0.1694   -6.93796 
 H                     11.04765  -1.21964  -6.03103 
 H                     9.89579  -0.37028  -7.13739 
 H                     10.43453   1.81123  -6.0383 
 H                     11.58571   0.96659  -4.92319 
 H                     9.02679  -0.32841  -4.73335 
 H                     8.66277   3.70726  -1.9457 
 H                     6.40654   0.13011  -1.02734 
 H                     5.42483   1.27788   0.90068 
 N                     7.75184   5.15473   0.05953 
 H                     6.02894   3.59577   1.42336 
 O                     9.02262   5.56726  -0.04903 
 O                     6.82026   6.03252   0.45758 
 H                     11.7507   0.99748  -7.98117 
 H                     7.70988   0.204    -2.97019 
 

 GradGradGradGradGradGradGradGradGradGradGradGradGradGradGradGradGradGrad
 Berny optimization.
 Initialization pass.
                           ----------------------------
                           !    Initial Parameters    !
                           ! (Angstroms and Degrees)  !
 --------------------------                            --------------------------
 ! Name  Definition              Value          Derivative Info.                !
 --------------------------------------------------------------------------------
 ! R1    R(1,2)                  1.5228         estimate D2E/DX2                !
 ! R2    R(1,14)                 1.1104         estimate D2E/DX2                !
 ! R3    R(1,15)                 1.1109         estimate D2E/DX2                !
 ! R4    R(1,28)                 1.07           estimate D2E/DX2                !
 ! R5    R(2,3)                  1.5314         estimate D2E/DX2                !
 ! R6    R(2,16)                 1.1118         estimate D2E/DX2                !
 ! R7    R(2,17)                 1.1114         estimate D2E/DX2                !
 ! R8    R(3,4)                  1.4528         estimate D2E/DX2                !
 ! R9    R(3,18)                 1.1126         estimate D2E/DX2                !
 ! R10   R(3,19)                 1.1126         estimate D2E/DX2                !
 ! R11   R(4,5)                  1.3633         estimate D2E/DX2                !
 ! R12   R(4,20)                 1.0323         estimate D2E/DX2                !
 ! R13   R(5,6)                  1.2205         estimate D2E/DX2                !
 ! R14   R(5,7)                  1.3694         estimate D2E/DX2                !
 ! R15   R(7,8)                  1.4403         estimate D2E/DX2                !
 ! R16   R(7,29)                 0.9845         estimate D2E/DX2                !
 ! R17   R(8,9)                  1.4178         estimate D2E/DX2                !
 ! R18   R(8,10)                 1.4075         estimate D2E/DX2                !
 ! R19   R(9,13)                 1.4101         estimate D2E/DX2                !
 ! R20   R(9,21)                 1.0723         estimate D2E/DX2                !
 ! R21   R(10,11)                1.3939         estimate D2E/DX2                !
 ! R22   R(10,22)                1.083          estimate D2E/DX2                !
 ! R23   R(11,12)                1.3922         estimate D2E/DX2                !
 ! R24   R(11,23)                1.0825         estimate D2E/DX2                !
 ! R25   R(12,13)                1.4035         estimate D2E/DX2                !
 ! R26   R(12,25)                1.0824         estimate D2E/DX2                !
 ! R27   R(13,24)                1.4269         estimate D2E/DX2                !
 ! R28   R(24,26)                1.3405         estimate D2E/DX2                !
 ! R29   R(24,27)                1.3404         estimate D2E/DX2                !
 ! A1    A(2,1,14)             109.9339         estimate D2E/DX2                !
 ! A2    A(2,1,15)             110.5606         estimate D2E/DX2                !
 ! A3    A(2,1,28)             108.2653         estimate D2E/DX2                !
 ! A4    A(14,1,15)            108.989          estimate D2E/DX2                !
 ! A5    A(14,1,28)            109.8573         estimate D2E/DX2                !
 ! A6    A(15,1,28)            109.2219         estimate D2E/DX2                !
 ! A7    A(1,2,3)              110.7667         estimate D2E/DX2                !
 ! A8    A(1,2,16)             109.1858         estimate D2E/DX2                !
 ! A9    A(1,2,17)             108.7108         estimate D2E/DX2                !
 ! A10   A(3,2,16)             109.8062         estimate D2E/DX2                !
 ! A11   A(3,2,17)             109.4279         estimate D2E/DX2                !
 ! A12   A(16,2,17)            108.9094         estimate D2E/DX2                !
 ! A13   A(2,3,4)              111.0155         estimate D2E/DX2                !
 ! A14   A(2,3,18)             109.0984         estimate D2E/DX2                !
 ! A15   A(2,3,19)             109.2282         estimate D2E/DX2                !
 ! A16   A(4,3,18)             109.2522         estimate D2E/DX2                !
 ! A17   A(4,3,19)             109.2097         estimate D2E/DX2                !
 ! A18   A(18,3,19)            109.0074         estimate D2E/DX2                !
 ! A19   A(3,4,5)              121.8638         estimate D2E/DX2                !
 ! A20   A(3,4,20)             119.0293         estimate D2E/DX2                !
 ! A21   A(5,4,20)             119.1069         estimate D2E/DX2                !
 ! A22   A(4,5,6)              119.2087         estimate D2E/DX2                !
 ! A23   A(4,5,7)              119.4286         estimate D2E/DX2                !
 ! A24   A(6,5,7)              121.3627         estimate D2E/DX2                !
 ! A25   A(5,7,8)              128.1483         estimate D2E/DX2                !
 ! A26   A(5,7,29)             115.9254         estimate D2E/DX2                !
 ! A27   A(8,7,29)             115.9262         estimate D2E/DX2                !
 ! A28   A(7,8,9)              124.6217         estimate D2E/DX2                !
 ! A29   A(7,8,10)             117.4786         estimate D2E/DX2                !
 ! A30   A(9,8,10)             117.8997         estimate D2E/DX2                !
 ! A31   A(8,9,13)             121.0742         estimate D2E/DX2                !
 ! A32   A(8,9,21)             122.0857         estimate D2E/DX2                !
 ! A33   A(13,9,21)            116.8401         estimate D2E/DX2                !
 ! A34   A(8,10,11)            121.2488         estimate D2E/DX2                !
 ! A35   A(8,10,22)            120.308          estimate D2E/DX2                !
 ! A36   A(11,10,22)           118.4431         estimate D2E/DX2                !
 ! A37   A(10,11,12)           120.2399         estimate D2E/DX2                !
 ! A38   A(10,11,23)           119.8835         estimate D2E/DX2                !
 ! A39   A(12,11,23)           119.8766         estimate D2E/DX2                !
 ! A40   A(11,12,13)           120.401          estimate D2E/DX2                !
 ! A41   A(11,12,25)           118.7257         estimate D2E/DX2                !
 ! A42   A(13,12,25)           120.8733         estimate D2E/DX2                !
 ! A43   A(9,13,12)            119.1363         estimate D2E/DX2                !
 ! A44   A(9,13,24)            120.6462         estimate D2E/DX2                !
 ! A45   A(12,13,24)           120.2175         estimate D2E/DX2                !
 ! A46   A(13,24,26)           120.5344         estimate D2E/DX2                !
 ! A47   A(13,24,27)           120.6909         estimate D2E/DX2                !
 ! A48   A(26,24,27)           118.7747         estimate D2E/DX2                !
 ! D1    D(14,1,2,3)          -178.8076         estimate D2E/DX2                !
 ! D2    D(14,1,2,16)           60.1521         estimate D2E/DX2                !
 ! D3    D(14,1,2,17)          -58.5417         estimate D2E/DX2                !
 ! D4    D(15,1,2,3)            60.8144         estimate D2E/DX2                !
 ! D5    D(15,1,2,16)          -60.2259         estimate D2E/DX2                !
 ! D6    D(15,1,2,17)         -178.9197         estimate D2E/DX2                !
 ! D7    D(28,1,2,3)           -58.7946         estimate D2E/DX2                !
 ! D8    D(28,1,2,16)         -179.8349         estimate D2E/DX2                !
 ! D9    D(28,1,2,17)           61.4713         estimate D2E/DX2                !
 ! D10   D(1,2,3,4)            179.5593         estimate D2E/DX2                !
 ! D11   D(1,2,3,18)            59.1072         estimate D2E/DX2                !
 ! D12   D(1,2,3,19)           -59.9572         estimate D2E/DX2                !
 ! D13   D(16,2,3,4)           -59.7681         estimate D2E/DX2                !
 ! D14   D(16,2,3,18)          179.7799         estimate D2E/DX2                !
 ! D15   D(16,2,3,19)           60.7155         estimate D2E/DX2                !
 ! D16   D(17,2,3,4)            59.7219         estimate D2E/DX2                !
 ! D17   D(17,2,3,18)          -60.7302         estimate D2E/DX2                !
 ! D18   D(17,2,3,19)         -179.7946         estimate D2E/DX2                !
 ! D19   D(2,3,4,5)           -179.9468         estimate D2E/DX2                !
 ! D20   D(2,3,4,20)             0.0414         estimate D2E/DX2                !
 ! D21   D(18,3,4,5)           -59.5859         estimate D2E/DX2                !
 ! D22   D(18,3,4,20)          120.4023         estimate D2E/DX2                !
 ! D23   D(19,3,4,5)            59.5587         estimate D2E/DX2                !
 ! D24   D(19,3,4,20)         -120.453          estimate D2E/DX2                !
 ! D25   D(3,4,5,6)             -0.0129         estimate D2E/DX2                !
 ! D26   D(3,4,5,7)            179.9634         estimate D2E/DX2                !
 ! D27   D(20,4,5,6)           179.9988         estimate D2E/DX2                !
 ! D28   D(20,4,5,7)            -0.0248         estimate D2E/DX2                !
 ! D29   D(4,5,7,8)           -179.9922         estimate D2E/DX2                !
 ! D30   D(4,5,7,29)             0.0081         estimate D2E/DX2                !
 ! D31   D(6,5,7,8)             -0.0164         estimate D2E/DX2                !
 ! D32   D(6,5,7,29)           179.984          estimate D2E/DX2                !
 ! D33   D(5,7,8,9)             10.6979         estimate D2E/DX2                !
 ! D34   D(5,7,8,10)          -169.2975         estimate D2E/DX2                !
 ! D35   D(29,7,8,9)          -169.3025         estimate D2E/DX2                !
 ! D36   D(29,7,8,10)           10.7021         estimate D2E/DX2                !
 ! D37   D(7,8,9,13)           179.9978         estimate D2E/DX2                !
 ! D38   D(7,8,9,21)            -0.0175         estimate D2E/DX2                !
 ! D39   D(10,8,9,13)           -0.0068         estimate D2E/DX2                !
 ! D40   D(10,8,9,21)          179.978          estimate D2E/DX2                !
 ! D41   D(7,8,10,11)         -179.9918         estimate D2E/DX2                !
 ! D42   D(7,8,10,22)           -0.0019         estimate D2E/DX2                !
 ! D43   D(9,8,10,11)            0.0124         estimate D2E/DX2                !
 ! D44   D(9,8,10,22)         -179.9977         estimate D2E/DX2                !
 ! D45   D(8,9,13,12)           -0.0033         estimate D2E/DX2                !
 ! D46   D(8,9,13,24)          179.9958         estimate D2E/DX2                !
 ! D47   D(21,9,13,12)        -179.9888         estimate D2E/DX2                !
 ! D48   D(21,9,13,24)           0.0103         estimate D2E/DX2                !
 ! D49   D(8,10,11,12)          -0.0079         estimate D2E/DX2                !
 ! D50   D(8,10,11,23)         179.992          estimate D2E/DX2                !
 ! D51   D(22,10,11,12)       -179.998          estimate D2E/DX2                !
 ! D52   D(22,10,11,23)          0.0019         estimate D2E/DX2                !
 ! D53   D(10,11,12,13)         -0.0026         estimate D2E/DX2                !
 ! D54   D(10,11,12,25)       -179.9986         estimate D2E/DX2                !
 ! D55   D(23,11,12,13)        179.9975         estimate D2E/DX2                !
 ! D56   D(23,11,12,25)          0.0014         estimate D2E/DX2                !
 ! D57   D(11,12,13,9)           0.0081         estimate D2E/DX2                !
 ! D58   D(11,12,13,24)       -179.991          estimate D2E/DX2                !
 ! D59   D(25,12,13,9)        -179.996          estimate D2E/DX2                !
 ! D60   D(25,12,13,24)          0.0049         estimate D2E/DX2                !
 ! D61   D(9,13,24,26)         -40.9393         estimate D2E/DX2                !
 ! D62   D(9,13,24,27)         139.056          estimate D2E/DX2                !
 ! D63   D(12,13,24,26)        139.0598         estimate D2E/DX2                !
 ! D64   D(12,13,24,27)        -40.9449         estimate D2E/DX2                !
 --------------------------------------------------------------------------------
 Trust Radius=3.00D-01 FncErr=1.00D-07 GrdErr=1.00D-06
 Number of steps in this run=    151 maximum allowed number of steps=    174.
 GradGradGradGradGradGradGradGradGradGradGradGradGradGradGradGradGradGrad

                          Input orientation:                          
 ---------------------------------------------------------------------
 Center     Atomic      Atomic             Coordinates (Angstroms)
 Number     Number       Type             X           Y           Z
 ---------------------------------------------------------------------
      1          6           0       11.973530    0.069980   -7.496410
      2          6           0       10.830080   -0.258560   -6.545960
      3          6           0       10.647510    0.855080   -5.510710
      4          7           0        9.550930    0.551910   -4.607260
      5          6           0        9.194900    1.397040   -3.598490
      6          8           0        9.813390    2.438420   -3.447700
      7          7           0        8.152310    1.061870   -2.776340
      8          6           0        7.621730    1.806750   -1.663660
      9          6           0        7.965580    3.146960   -1.354190
     10          6           0        6.696930    1.154080   -0.827040
     11          6           0        6.134090    1.800920    0.271980
     12          6           0        6.480780    3.117260    0.564080
     13          6           0        7.399180    3.805770   -0.243560
     14          1           0       12.079760   -0.735300   -8.253480
     15          1           0       12.928730    0.169400   -6.937960
     16          1           0       11.047650   -1.219640   -6.031030
     17          1           0        9.895790   -0.370280   -7.137390
     18          1           0       10.434530    1.811230   -6.038300
     19          1           0       11.585710    0.966590   -4.923190
     20          1           0        9.026790   -0.328410   -4.733350
     21          1           0        8.662770    3.707260   -1.945700
     22          1           0        6.406540    0.130110   -1.027340
     23          1           0        5.424830    1.277880    0.900680
     24          7           0        7.751840    5.154730    0.059530
     25          1           0        6.028940    3.595770    1.423360
     26          8           0        9.022620    5.567260   -0.049030
     27          8           0        6.820260    6.032520    0.457580
     28          1           0       11.750700    0.997480   -7.981170
     29          1           0        7.709880    0.204000   -2.970190
 ---------------------------------------------------------------------
                    Distance matrix (angstroms):
                    1          2          3          4          5
     1  C    0.000000
     2  C    1.522751   0.000000
     3  C    2.513507   1.531427   0.000000
     4  N    3.801110   2.460009   1.452798   0.000000
     5  C    4.967459   3.755317   2.461784   1.363312   0.000000
     6  O    5.164084   4.231616   2.731068   2.229884   1.220549
     7  N    6.153424   4.808744   3.707501   2.359760   1.369403
     8  C    7.481678   6.196440   4.986062   3.736471   2.527112
     9  C    7.953511   6.837938   5.451800   4.453098   3.100053
    10  C    8.573114   7.196147   6.134594   4.774724   3.738960
    11  C    9.871327   8.531007   7.396288   6.086198   4.950981
    12  C   10.218988   8.992510   7.705983   6.538318   5.258573
    13  C    9.353322   8.246824   6.855734   5.853162   4.503570
    14  H    1.110367   2.169010   3.478999   4.620261   5.876923
    15  H    1.110927   2.177417   2.776898   4.121651   5.157581
    16  H    2.160489   1.111829   2.176076   2.721338   4.024543
    17  H    2.154003   1.111381   2.170870   2.714944   4.017273
    18  H    2.743457   2.167535   1.112625   2.101074   2.767835
    19  H    2.752413   2.169182   1.112580   2.100500   2.766964
    20  H    4.059125   2.557790   2.152132   1.032272   2.072039
    21  H    7.416287   6.448826   4.978295   4.222436   2.889982
    22  H    8.534861   7.083356   6.213857   4.783402   3.998859
    23  H   10.717071   9.328978   8.280161   6.920198   5.871129
    24  N   10.038405   9.078093   7.609170   6.797176   5.439096
    25  H   11.284132  10.070594   8.770627   7.618259   6.330616
    26  O    9.715525   8.911632   7.394245   6.797816   5.478967
    27  O   11.197055  10.232591   8.779192   7.946461   6.601386
    28  H    1.070001   2.117783   2.709332   4.052257   5.089169
    29  H    6.219593   4.768201   3.937997   2.488072   2.005839
                    6          7          8          9         10
     6  O    0.000000
     7  N    2.259381   0.000000
     8  C    2.895717   1.440284   0.000000
     9  C    2.880836   2.530806   1.417804   0.000000
    10  C    4.269627   2.434421   1.407539   2.420523   0.000000
    11  C    5.270643   3.729834   2.441272   2.794747   1.393928
    12  C    5.259419   4.263455   2.825248   2.425958   2.415784
    13  C    4.238463   3.809353   2.462173   1.410085   2.804472
    14  H    6.189059   6.975224   8.352352   8.921806   9.364648
    15  H    5.199587   6.397638   7.659204   8.042214   8.783409
    16  H    4.645255   4.917447   6.322174   7.102055   7.186433
    17  H    4.637823   4.910146   6.314470   7.038614   7.237188
    18  H    2.736858   4.050982   5.200898   5.460840   6.446606
    19  H    2.735776   4.050466   5.200341   5.531466   6.380734
    20  H    3.150712   2.554894   3.994509   4.962165   4.783856
    21  H    2.278132   2.819330   2.185234   1.072331   3.410961
    22  H    4.774208   2.641002   2.166267   3.411572   1.083033
    23  H    6.286074   4.583261   3.417881   3.877281   2.149088
    24  N    4.891727   4.995402   3.767663   2.464839   4.231317
    25  H    6.276045   5.344795   3.907335   3.415668   3.387087
    26  O    4.686781   5.337996   4.325617   2.945951   5.048791
    27  O    6.093242   6.077825   4.795742   3.594541   5.046250
    28  H    5.136324   6.327939   7.590405   7.928699   8.760519
    29  H    3.105705   0.984512   2.069686   3.367173   2.553784
                   11         12         13         14         15
    11  C    0.000000
    12  C    1.392217   0.000000
    13  C    2.426037   1.403491   0.000000
    14  H   10.698919  11.132842  10.328987   0.000000
    15  H   10.040529  10.322138   9.413506   1.808266   0.000000
    16  H    8.543699   9.119237   8.488868   2.497823   2.508070
    17  H    8.588554   9.117997   8.437852   2.479641   3.087030
    18  H    7.636329   7.805721   6.838900   3.754813   3.118658
    19  H    7.576679   7.797168   6.891075   3.772446   2.549218
    20  H    6.160770   6.813044   6.316548   4.677339   4.509241
    21  H    3.866065   3.377599   2.122179   8.438024   7.459057
    22  H    2.134026   3.385439   3.887174   9.227755   8.802042
    23  H    1.082536   2.147475   3.405521  11.495200  10.907865
    24  N    3.729650   2.453864   1.426859  11.069304  10.030881
    25  H    2.134999   1.082355   2.168013  12.207040  11.369203
    26  O    4.757307   3.583204   2.403382  10.788020   9.583942
    27  O    4.290887   2.936891   2.405236  12.220814  11.242046
    28  H   10.015304  10.260937   9.310898   1.784646   1.778133
    29  H    3.942706   4.742239   4.528111   6.920353   6.555974
                   16         17         18         19         20
    16  H    0.000000
    17  H    1.808930   0.000000
    18  H    3.092271   2.501445   0.000000
    19  H    2.509267   3.089617   1.811657   0.000000
    20  H    2.561667   2.556623   2.874489   2.874219   0.000000
    21  H    6.830221   6.715677   4.845971   4.992023   4.918347
    22  H    6.956913   7.053933   6.645343   6.534612   4.561848
    23  H    9.268350   9.344329   8.575022   8.483561   6.877251
    24  N    9.412220   9.322978   7.453814   7.554242   7.393377
    25  H   10.195271  10.196496   8.847043   8.835665   7.892488
    26  O    9.270765   9.287715   7.209203   7.175864   7.530059
    27  O   10.609746  10.398957   8.548608   8.793512   8.501527
    28  H    3.035284   2.454266   2.483795   3.062583   4.441397
    29  H    4.747231   4.740628   4.406836   4.406565   2.264166
                   21         22         23         24         25
    21  H    0.000000
    22  H    4.327812   0.000000
    23  H    4.948537   2.449161   0.000000
    24  N    2.635509   5.313937   4.599182   0.000000
    25  H    4.277856   4.261374   2.451685   2.694211   0.000000
    26  O    2.680755   6.112574   5.678452   1.340466   3.875155
    27  O    3.818040   6.100377   4.974954   1.340448   2.738005
    28  H    7.301035   8.812952  10.907911   9.895780  11.310828
    29  H    3.772322   2.340688   4.621505   5.804368   5.799392
                   26         27         28         29
    26  O    0.000000
    27  O    2.307273   0.000000
    28  H    9.552181  10.994242   0.000000
    29  H    6.246681   6.820020   6.485966   0.000000
 Stoichiometry    C10H13N3O3
 Framework group  C1[X(C10H13N3O3)]
 Deg. of freedom    81
 Full point group                 C1      NOp   1
 Largest Abelian subgroup         C1      NOp   1
 Largest concise Abelian subgroup C1      NOp   1
                         Standard orientation:                         
 ---------------------------------------------------------------------
 Center     Atomic      Atomic             Coordinates (Angstroms)
 Number     Number       Type             X           Y           Z
 ---------------------------------------------------------------------
      1          6           0        6.387181   -0.946986    0.025997
      2          6           0        5.308109    0.124306    0.107909
      3          6           0        3.914424   -0.498199   -0.016175
      4          7           0        2.880114    0.518222    0.071651
      5          6           0        1.555574    0.206205   -0.011167
      6          8           0        1.226595   -0.959240   -0.163647
      7          7           0        0.622305    1.204306    0.078646
      8          6           0       -0.812030    1.089377    0.016240
      9          6           0       -1.524737   -0.135433    0.061586
     10          6           0       -1.554593    2.279646   -0.097888
     11          6           0       -2.946797    2.259840   -0.164296
     12          6           0       -3.633783    1.049787   -0.118561
     13          6           0       -2.933001   -0.160946   -0.005349
     14          1           0        7.389934   -0.483683    0.138922
     15          1           0        6.340404   -1.473983   -0.950857
     16          1           0        5.464498    0.863554   -0.707700
     17          1           0        5.395112    0.643881    1.086500
     18          1           0        3.772044   -1.238184    0.802412
     19          1           0        3.832241   -1.020472   -0.995109
     20          1           0        3.156582    1.504388    0.200592
     21          1           0       -1.026896   -1.081308    0.147426
     22          1           0       -1.049928    3.237157   -0.135939
     23          1           0       -3.495869    3.188687   -0.251747
     24          7           0       -3.641037   -1.398873    0.040991
     25          1           0       -4.714738    1.062949   -0.172012
     26          8           0       -3.186215   -2.468950   -0.626033
     27          8           0       -4.771959   -1.514040    0.751310
     28          1           0        6.221248   -1.651090    0.814417
     29          1           0        0.976244    2.114775    0.201268
 ---------------------------------------------------------------------
 Rotational constants (GHZ):      1.1850056      0.1930392      0.1684170
 General basis read from cards:  (6D, 7F)
 There are   330 symmetry adapted cartesian basis functions of A   symmetry.
 There are   330 symmetry adapted basis functions of A   symmetry.
   330 basis functions,   564 primitive gaussians,   330 cartesian basis functions
    59 alpha electrons       59 beta electrons
       nuclear repulsion energy      1026.3068672858 Hartrees.
 NAtoms=   29 NActive=   29 NUniq=   29 SFac= 1.00D+00 NAtFMM=   60 NAOKFM=F Big=F
 Integral buffers will be    131072 words long.
 Raffenetti 2 integral format.
 Two-electron integral symmetry is turned on.
 ------------------------------------------------------------------------------
 Polarizable Continuum Model (PCM)
 =================================
 Model                : PCM (using non-symmetric T matrix).
 Atomic radii         : SMD-Coulomb.
 Polarization charges : Total charges.
 Charge compensation  : None.
 Solution method      : On-the-fly selection.
 Cavity type          : VdW (van der Waals Surface) (Alpha=1.000).
 Cavity algorithm     : GePol (No added spheres)
                        Default sphere list used, NSphG=   29.
                        Lebedev-Laikov grids with approx.  5.0 points / Ang**2.
                        Smoothing algorithm: York/Karplus (Gamma=1.0000).
                        Polarization charges: spherical gaussians, with
                                              point-specific exponents (IZeta= 3).
                        Self-potential: point-specific (ISelfS= 7).
                        Self-field    : sphere-specific E.n sum rule (ISelfD= 2).
 1st derivatives      : Analytical E(r).r(x)/FMM algorithm (CHGder, D1EAlg=3).
                        Cavity 1st derivative terms included.
 Solvent              : Water, Eps=  78.355300 Eps(inf)=   1.777849
 ------------------------------------------------------------------------------
 ------------------------------------------------------------------------------
 Atomic radii for non-electrostatic terms: SMD-CDS.
 ------------------------------------------------------------------------------
 Nuclear repulsion after PCM non-electrostatic terms =     1026.3191409565 Hartrees.
 One-electron integrals computed using PRISM.
 NBasis=   330 RedAO= T EigKep=  1.81D-06  NBF=   330
 NBsUse=   330 1.00D-06 EigRej= -1.00D+00 NBFU=   330
 ExpMin= 4.38D-02 ExpMax= 5.48D+03 ExpMxC= 8.25D+02 IAcc=3 IRadAn=         5 AccDes= 0.00D+00
 Harris functional with IExCor= 1009 and IRadAn=       5 diagonalized for initial guess.
 HarFok:  IExCor= 1009 AccDes= 0.00D+00 IRadAn=         5 IDoV= 1 UseB2=F ITyADJ=14
 ICtDFT=  3500011 ScaDFX=  1.000000  1.000000  1.000000  1.000000
 FoFCou: FMM=F IPFlag=           0 FMFlag=      100000 FMFlg1=           0
         NFxFlg=           0 DoJE=T BraDBF=F KetDBF=T FulRan=T
         wScrn=  0.000000 ICntrl=     500 IOpCl=  0 I1Cent=   200000004 NGrid=           0
         NMat0=    1 NMatS0=      1 NMatT0=    0 NMatD0=    1 NMtDS0=    0 NMtDT0=    0
 Petite list used in FoFCou.
 Requested convergence on RMS density matrix=1.00D-08 within 128 cycles.
 Requested convergence on MAX density matrix=1.00D-06.
 Requested convergence on             energy=1.00D-06.
 No special actions if energy rises.
 Inv3:  Mode=1 IEnd=    15174003.
 Iteration    1 A*A^-1 deviation from unit magnitude is 4.88D-15 for   2247.
 Iteration    1 A*A^-1 deviation from orthogonality  is 4.69D-15 for   2241   1141.
 Iteration    1 A^-1*A deviation from unit magnitude is 6.00D-15 for    543.
 Iteration    1 A^-1*A deviation from orthogonality  is 3.09D-11 for   1228   1167.
 Error on total polarization charges =  0.06365
 SCF Done:  E(RM062X) =  -778.425406435     A.U. after   19 cycles
            NFock= 19  Conv=0.21D-08     -V/T= 2.0097
 SMD-CDS (non-electrostatic) energy       (kcal/mol) =       7.70
 (included in total energy above)

 **********************************************************************

            Population analysis using the SCF density.

 **********************************************************************

 Orbital symmetries:
       Occupied  (A) (A) (A) (A) (A) (A) (A) (A) (A) (A) (A) (A)
                 (A) (A) (A) (A) (A) (A) (A) (A) (A) (A) (A) (A)
                 (A) (A) (A) (A) (A) (A) (A) (A) (A) (A) (A) (A)
                 (A) (A) (A) (A) (A) (A) (A) (A) (A) (A) (A) (A)
                 (A) (A) (A) (A) (A) (A) (A) (A) (A) (A) (A)
       Virtual   (A) (A) (A) (A) (A) (A) (A) (A) (A) (A) (A) (A)
                 (A) (A) (A) (A) (A) (A) (A) (A) (A) (A) (A) (A)
                 (A) (A) (A) (A) (A) (A) (A) (A) (A) (A) (A) (A)
                 (A) (A) (A) (A) (A) (A) (A) (A) (A) (A) (A) (A)
                 (A) (A) (A) (A) (A) (A) (A) (A) (A) (A) (A) (A)
                 (A) (A) (A) (A) (A) (A) (A) (A) (A) (A) (A) (A)
                 (A) (A) (A) (A) (A) (A) (A) (A) (A) (A) (A) (A)
                 (A) (A) (A) (A) (A) (A) (A) (A) (A) (A) (A) (A)
                 (A) (A) (A) (A) (A) (A) (A) (A) (A) (A) (A) (A)
                 (A) (A) (A) (A) (A) (A) (A) (A) (A) (A) (A) (A)
                 (A) (A) (A) (A) (A) (A) (A) (A) (A) (A) (A) (A)
                 (A) (A) (A) (A) (A) (A) (A) (A) (A) (A) (A) (A)
                 (A) (A) (A) (A) (A) (A) (A) (A) (A) (A) (A) (A)
                 (A) (A) (A) (A) (A) (A) (A) (A) (A) (A) (A) (A)
                 (A) (A) (A) (A) (A) (A) (A) (A) (A) (A) (A) (A)
                 (A) (A) (A) (A) (A) (A) (A) (A) (A) (A) (A) (A)
                 (A) (A) (A) (A) (A) (A) (A) (A) (A) (A) (A) (A)
                 (A) (A) (A) (A) (A) (A) (A) (A) (A) (A) (A) (A)
                 (A) (A) (A) (A) (A) (A) (A) (A) (A) (A) (A) (A)
                 (A) (A) (A) (A) (A) (A) (A) (A) (A) (A) (A) (A)
                 (A) (A) (A) (A) (A) (A) (A) (A) (A) (A) (A) (A)
                 (A) (A) (A) (A) (A) (A) (A) (A) (A) (A) (A) (A)
                 (A) (A) (A) (A) (A) (A) (A)
 The electronic state is 1-A.
 Alpha  occ. eigenvalues --  -19.71773 -19.71750 -19.61996 -15.03603 -14.80842
 Alpha  occ. eigenvalues --  -14.78712 -10.69284 -10.63850 -10.63634 -10.59080
 Alpha  occ. eigenvalues --  -10.58583 -10.58225 -10.58104 -10.57661 -10.54479
 Alpha  occ. eigenvalues --  -10.52992  -1.30265  -1.19320  -1.13702  -1.06208
 Alpha  occ. eigenvalues --   -1.02843  -0.99856  -0.92802  -0.88158  -0.86264
 Alpha  occ. eigenvalues --   -0.82071  -0.77837  -0.73066  -0.70303  -0.67805
 Alpha  occ. eigenvalues --   -0.67617  -0.65418  -0.63292  -0.60744  -0.59575
 Alpha  occ. eigenvalues --   -0.58772  -0.58023  -0.55867  -0.53682  -0.53294
 Alpha  occ. eigenvalues --   -0.52368  -0.51812  -0.50562  -0.47456  -0.46323
 Alpha  occ. eigenvalues --   -0.45539  -0.45369  -0.44317  -0.42141  -0.41609
 Alpha  occ. eigenvalues --   -0.40454  -0.39625  -0.39323  -0.39075  -0.38550
 Alpha  occ. eigenvalues --   -0.35957  -0.33640  -0.32599  -0.28897
 Alpha virt. eigenvalues --   -0.10453   0.00109   0.00505   0.01552   0.02890
 Alpha virt. eigenvalues --    0.03552   0.04108   0.04410   0.04520   0.05381
 Alpha virt. eigenvalues --    0.05946   0.06316   0.06753   0.07829   0.08093
 Alpha virt. eigenvalues --    0.08354   0.08620   0.09071   0.09698   0.10362
 Alpha virt. eigenvalues --    0.10590   0.10886   0.11101   0.11556   0.12430
 Alpha virt. eigenvalues --    0.13478   0.13868   0.14177   0.14547   0.14734
 Alpha virt. eigenvalues --    0.14955   0.15652   0.16098   0.17102   0.17695
 Alpha virt. eigenvalues --    0.18300   0.18686   0.19356   0.19628   0.20366
 Alpha virt. eigenvalues --    0.20675   0.20821   0.20991   0.21685   0.22337
 Alpha virt. eigenvalues --    0.22649   0.23049   0.23318   0.23698   0.24116
 Alpha virt. eigenvalues --    0.24265   0.24962   0.25430   0.25503   0.25882
 Alpha virt. eigenvalues --    0.26354   0.27049   0.27369   0.27650   0.28027
 Alpha virt. eigenvalues --    0.28907   0.29346   0.30075   0.30254   0.30667
 Alpha virt. eigenvalues --    0.31101   0.31484   0.31845   0.32134   0.32479
 Alpha virt. eigenvalues --    0.32833   0.33107   0.33449   0.34107   0.34317
 Alpha virt. eigenvalues --    0.35036   0.35475   0.35842   0.36382   0.36830
 Alpha virt. eigenvalues --    0.37385   0.38134   0.39145   0.39411   0.40645
 Alpha virt. eigenvalues --    0.41457   0.42494   0.43482   0.46066   0.46275
 Alpha virt. eigenvalues --    0.47665   0.49290   0.51166   0.51577   0.54844
 Alpha virt. eigenvalues --    0.58851   0.62343   0.65287   0.68759   0.69499
 Alpha virt. eigenvalues --    0.70022   0.70623   0.72369   0.74847   0.75563
 Alpha virt. eigenvalues --    0.75690   0.76329   0.77777   0.78782   0.79004
 Alpha virt. eigenvalues --    0.79447   0.79903   0.80944   0.82487   0.83749
 Alpha virt. eigenvalues --    0.85998   0.86396   0.88396   0.89539   0.90074
 Alpha virt. eigenvalues --    0.92701   0.94710   0.96922   0.97979   0.98568
 Alpha virt. eigenvalues --    0.99700   1.00757   1.01258   1.02999   1.03561
 Alpha virt. eigenvalues --    1.04102   1.05281   1.06058   1.06568   1.07423
 Alpha virt. eigenvalues --    1.09040   1.09853   1.11548   1.11925   1.12168
 Alpha virt. eigenvalues --    1.14159   1.14679   1.16962   1.17841   1.18514
 Alpha virt. eigenvalues --    1.20039   1.20210   1.22260   1.23308   1.23869
 Alpha virt. eigenvalues --    1.24618   1.27746   1.29035   1.30096   1.30617
 Alpha virt. eigenvalues --    1.31674   1.33539   1.33787   1.34663   1.34758
 Alpha virt. eigenvalues --    1.36271   1.37811   1.38854   1.39455   1.42252
 Alpha virt. eigenvalues --    1.42996   1.45333   1.45396   1.46987   1.48945
 Alpha virt. eigenvalues --    1.49743   1.50333   1.51206   1.51683   1.53565
 Alpha virt. eigenvalues --    1.55572   1.57342   1.58244   1.60457   1.64071
 Alpha virt. eigenvalues --    1.67234   1.75919   1.76683   1.78483   1.79399
 Alpha virt. eigenvalues --    1.82753   1.84027   1.84685   1.85933   1.86686
 Alpha virt. eigenvalues --    1.87375   1.88131   1.89055   1.91075   1.91481
 Alpha virt. eigenvalues --    1.92454   1.93405   1.94864   1.96372   1.98350
 Alpha virt. eigenvalues --    1.99133   2.02061   2.02604   2.02859   2.05196
 Alpha virt. eigenvalues --    2.05534   2.07023   2.07864   2.09506   2.11473
 Alpha virt. eigenvalues --    2.14742   2.15429   2.17738   2.20742   2.21120
 Alpha virt. eigenvalues --    2.21454   2.22073   2.24891   2.27935   2.30014
 Alpha virt. eigenvalues --    2.30896   2.35337   2.37292   2.37706   2.38676
 Alpha virt. eigenvalues --    2.41187   2.42891   2.43874   2.48009   2.50693
 Alpha virt. eigenvalues --    2.52092   2.55144   2.56971   2.62290   2.63710
 Alpha virt. eigenvalues --    2.65681   2.66285   2.69332   2.71457   2.73240
 Alpha virt. eigenvalues --    2.76064   2.78127   2.80389   2.80704   2.84539
 Alpha virt. eigenvalues --    2.90613   2.94211   2.94765   2.98212   3.00045
 Alpha virt. eigenvalues --    3.11132   3.13338   3.26560   3.33043   3.41309
 Alpha virt. eigenvalues --    4.08712   4.16354   4.24467   4.27282   4.27392
 Alpha virt. eigenvalues --    4.33676   4.35294   4.37831   4.42115   4.42772
 Alpha virt. eigenvalues --    4.47953   4.49953   4.55778   4.58888   4.65945
 Alpha virt. eigenvalues --    4.76679
          Condensed to atoms (all electrons):
               1          2          3          4          5          6
     1  C    5.640738  -0.043776   0.010506   0.000718  -0.046241  -0.003414
     2  C   -0.043776   6.126280  -0.331065  -0.084988   0.111950   0.017133
     3  C    0.010506  -0.331065   6.584638   0.288403  -0.475615  -0.083293
     4  N    0.000718  -0.084988   0.288403   7.548677   0.419116  -0.211666
     5  C   -0.046241   0.111950  -0.475615   0.419116   5.862980   0.569402
     6  O   -0.003414   0.017133  -0.083293  -0.211666   0.569402   8.541272
     7  N   -0.002438   0.009384  -0.080813  -0.321163   0.169562  -0.112941
     8  C   -0.005671  -0.006921  -0.280581  -0.085634  -0.946929  -0.241760
     9  C   -0.000077   0.004991   0.101979   0.033218   1.737431   0.242932
    10  C   -0.000730  -0.001125  -0.045657  -0.046579  -0.720818  -0.108891
    11  C   -0.000041  -0.000156  -0.010245  -0.007504  -0.215539   0.007502
    12  C    0.000062   0.000498   0.011741   0.002152   0.201941  -0.008207
    13  C   -0.001772   0.007887  -0.146563  -0.018765  -1.436573   0.125720
    14  H    0.409842  -0.085314   0.029125   0.000490  -0.001081   0.000007
    15  H    0.413697  -0.059333  -0.010179   0.000571   0.001837  -0.000051
    16  H   -0.030010   0.415106  -0.059151   0.005920  -0.015786  -0.000206
    17  H   -0.043469   0.435498  -0.090763   0.006361   0.007210  -0.000167
    18  H    0.002169  -0.044036   0.429274  -0.053703  -0.025970   0.003834
    19  H    0.001862  -0.039864   0.413408  -0.054008  -0.014835   0.004258
    20  H   -0.003535   0.000097  -0.058719   0.248764   0.017829   0.008939
    21  H    0.000006   0.000070   0.002379  -0.000432   0.018424  -0.003518
    22  H    0.000000   0.000008   0.000025   0.000559   0.003729  -0.000019
    23  H    0.000000   0.000000   0.000011   0.000007   0.001486  -0.000001
    24  N    0.000003  -0.000028   0.000308   0.000293  -0.008957   0.000364
    25  H    0.000000   0.000000   0.000003  -0.000001   0.000822   0.000003
    26  O    0.000001   0.000009   0.000322  -0.000114   0.004975  -0.000597
    27  O    0.000000  -0.000001   0.000142   0.000013   0.005112   0.000045
    28  H    0.423467  -0.073063  -0.006774   0.000553  -0.001136  -0.000057
    29  H   -0.000076   0.000752  -0.004564   0.003584  -0.024042   0.007979
               7          8          9         10         11         12
     1  C   -0.002438  -0.005671  -0.000077  -0.000730  -0.000041   0.000062
     2  C    0.009384  -0.006921   0.004991  -0.001125  -0.000156   0.000498
     3  C   -0.080813  -0.280581   0.101979  -0.045657  -0.010245   0.011741
     4  N   -0.321163  -0.085634   0.033218  -0.046579  -0.007504   0.002152
     5  C    0.169562  -0.946929   1.737431  -0.720818  -0.215539   0.201941
     6  O   -0.112941  -0.241760   0.242932  -0.108891   0.007502  -0.008207
     7  N    7.680497  -0.032769  -0.158509   0.312416   0.001889   0.034822
     8  C   -0.032769  12.068167  -2.218386   0.972889   0.108050  -0.286354
     9  C   -0.158509  -2.218386  35.192390  -2.570730  -2.589990  -5.066051
    10  C    0.312416   0.972889  -2.570730  12.884792   0.031674  -0.829265
    11  C    0.001889   0.108050  -2.589990   0.031674   6.715594   0.192726
    12  C    0.034822  -0.286354  -5.066051  -0.829265   0.192726  11.350767
    13  C   -0.096813  -3.251698 -19.649956  -3.090916   1.754900   0.080952
    14  H    0.000010  -0.000021   0.000003  -0.000001  -0.000000   0.000000
    15  H    0.000022   0.000049  -0.000024   0.000004  -0.000000   0.000000
    16  H   -0.000437  -0.000245  -0.000607   0.000219  -0.000000   0.000003
    17  H    0.000509  -0.000420   0.000387   0.000001  -0.000003   0.000001
    18  H   -0.001531   0.001382  -0.002071   0.000518  -0.000016   0.000007
    19  H    0.001050  -0.008120   0.007025  -0.001923  -0.000020  -0.000006
    20  H    0.018131   0.013057   0.001752  -0.002059   0.000135  -0.000108
    21  H   -0.010584   0.014075   0.279062   0.013299  -0.014041   0.011505
    22  H   -0.009397   0.047709   0.040141   0.234593  -0.002752  -0.011166
    23  H    0.000261   0.006143  -0.000123  -0.003264   0.309862   0.012477
    24  N   -0.000602  -0.024665  -0.164715   0.040893   0.079147  -0.121793
    25  H    0.000047   0.005108   0.032489  -0.005423  -0.044875   0.402040
    26  O   -0.000259   0.056389  -0.168747  -0.023399  -0.012562   0.010852
    27  O   -0.000325   0.023793   0.002820  -0.020439   0.024320  -0.182415
    28  H    0.000016   0.000018  -0.000055   0.000005  -0.000000   0.000000
    29  H    0.258158   0.009561   0.016139  -0.057673   0.016857  -0.006140
              13         14         15         16         17         18
     1  C   -0.001772   0.409842   0.413697  -0.030010  -0.043469   0.002169
     2  C    0.007887  -0.085314  -0.059333   0.415106   0.435498  -0.044036
     3  C   -0.146563   0.029125  -0.010179  -0.059151  -0.090763   0.429274
     4  N   -0.018765   0.000490   0.000571   0.005920   0.006361  -0.053703
     5  C   -1.436573  -0.001081   0.001837  -0.015786   0.007210  -0.025970
     6  O    0.125720   0.000007  -0.000051  -0.000206  -0.000167   0.003834
     7  N   -0.096813   0.000010   0.000022  -0.000437   0.000509  -0.001531
     8  C   -3.251698  -0.000021   0.000049  -0.000245  -0.000420   0.001382
     9  C  -19.649956   0.000003  -0.000024  -0.000607   0.000387  -0.002071
    10  C   -3.090916  -0.000001   0.000004   0.000219   0.000001   0.000518
    11  C    1.754900  -0.000000  -0.000000  -0.000000  -0.000003  -0.000016
    12  C    0.080952   0.000000   0.000000   0.000003   0.000001   0.000007
    13  C   32.125041   0.000000  -0.000001  -0.000063   0.000038  -0.000542
    14  H    0.000000   0.478834  -0.023336  -0.002824  -0.003107  -0.000050
    15  H   -0.000001  -0.023336   0.486003  -0.004682   0.003784  -0.000325
    16  H   -0.000063  -0.002824  -0.004682   0.490432  -0.030455   0.003652
    17  H    0.000038  -0.003107   0.003784  -0.030455   0.489383  -0.005333
    18  H   -0.000542  -0.000050  -0.000325   0.003652  -0.005333   0.493926
    19  H    0.001077  -0.000055   0.002596  -0.005267   0.003665  -0.038383
    20  H    0.000631  -0.000003   0.000001   0.000461   0.000669   0.002025
    21  H   -0.011608  -0.000000  -0.000000  -0.000000  -0.000000  -0.000001
    22  H   -0.000948   0.000000  -0.000000  -0.000000  -0.000000  -0.000000
    23  H   -0.010892  -0.000000   0.000000   0.000000   0.000000   0.000000
    24  N   -0.022795   0.000000  -0.000000   0.000000  -0.000000  -0.000001
    25  H   -0.081573   0.000000  -0.000000  -0.000000  -0.000000  -0.000000
    26  O    0.087153  -0.000000   0.000000  -0.000000   0.000000  -0.000000
    27  O    0.114788   0.000000  -0.000000   0.000000  -0.000000  -0.000000
    28  H   -0.000005  -0.023363  -0.029694   0.004254  -0.005075   0.003141
    29  H    0.021016  -0.000000  -0.000000   0.000000   0.000000   0.000002
              19         20         21         22         23         24
     1  C    0.001862  -0.003535   0.000006   0.000000   0.000000   0.000003
     2  C   -0.039864   0.000097   0.000070   0.000008   0.000000  -0.000028
     3  C    0.413408  -0.058719   0.002379   0.000025   0.000011   0.000308
     4  N   -0.054008   0.248764  -0.000432   0.000559   0.000007   0.000293
     5  C   -0.014835   0.017829   0.018424   0.003729   0.001486  -0.008957
     6  O    0.004258   0.008939  -0.003518  -0.000019  -0.000001   0.000364
     7  N    0.001050   0.018131  -0.010584  -0.009397   0.000261  -0.000602
     8  C   -0.008120   0.013057   0.014075   0.047709   0.006143  -0.024665
     9  C    0.007025   0.001752   0.279062   0.040141  -0.000123  -0.164715
    10  C   -0.001923  -0.002059   0.013299   0.234593  -0.003264   0.040893
    11  C   -0.000020   0.000135  -0.014041  -0.002752   0.309862   0.079147
    12  C   -0.000006  -0.000108   0.011505  -0.011166   0.012477  -0.121793
    13  C    0.001077   0.000631  -0.011608  -0.000948  -0.010892  -0.022795
    14  H   -0.000055  -0.000003  -0.000000   0.000000  -0.000000   0.000000
    15  H    0.002596   0.000001  -0.000000  -0.000000   0.000000  -0.000000
    16  H   -0.005267   0.000461  -0.000000  -0.000000   0.000000   0.000000
    17  H    0.003665   0.000669  -0.000000  -0.000000   0.000000  -0.000000
    18  H   -0.038383   0.002025  -0.000001  -0.000000   0.000000  -0.000001
    19  H    0.493015   0.002070   0.000000   0.000000  -0.000000   0.000002
    20  H    0.002070   0.265166   0.000001   0.000003  -0.000000   0.000001
    21  H    0.000000   0.000001   0.408338  -0.000075   0.000010  -0.007089
    22  H    0.000000   0.000003  -0.000075   0.420555  -0.002985  -0.000019
    23  H   -0.000000  -0.000000   0.000010  -0.002985   0.412225   0.000025
    24  N    0.000002   0.000001  -0.007089  -0.000019   0.000025   6.797896
    25  H    0.000000   0.000000  -0.000093  -0.000099  -0.002997  -0.005164
    26  O   -0.000000   0.000000   0.005311  -0.000002   0.000016   0.375429
    27  O   -0.000000  -0.000000  -0.001036  -0.000004  -0.000058   0.355031
    28  H   -0.000475   0.000001   0.000000   0.000000   0.000000   0.000000
    29  H    0.000008   0.002115  -0.000130   0.003876  -0.000007   0.000027
              25         26         27         28         29
     1  C    0.000000   0.000001   0.000000   0.423467  -0.000076
     2  C    0.000000   0.000009  -0.000001  -0.073063   0.000752
     3  C    0.000003   0.000322   0.000142  -0.006774  -0.004564
     4  N   -0.000001  -0.000114   0.000013   0.000553   0.003584
     5  C    0.000822   0.004975   0.005112  -0.001136  -0.024042
     6  O    0.000003  -0.000597   0.000045  -0.000057   0.007979
     7  N    0.000047  -0.000259  -0.000325   0.000016   0.258158
     8  C    0.005108   0.056389   0.023793   0.000018   0.009561
     9  C    0.032489  -0.168747   0.002820  -0.000055   0.016139
    10  C   -0.005423  -0.023399  -0.020439   0.000005  -0.057673
    11  C   -0.044875  -0.012562   0.024320  -0.000000   0.016857
    12  C    0.402040   0.010852  -0.182415   0.000000  -0.006140
    13  C   -0.081573   0.087153   0.114788  -0.000005   0.021016
    14  H    0.000000  -0.000000   0.000000  -0.023363  -0.000000
    15  H   -0.000000   0.000000  -0.000000  -0.029694  -0.000000
    16  H   -0.000000  -0.000000   0.000000   0.004254   0.000000
    17  H   -0.000000   0.000000  -0.000000  -0.005075   0.000000
    18  H   -0.000000  -0.000000  -0.000000   0.003141   0.000002
    19  H    0.000000  -0.000000  -0.000000  -0.000475   0.000008
    20  H    0.000000   0.000000  -0.000000   0.000001   0.002115
    21  H   -0.000093   0.005311  -0.001036   0.000000  -0.000130
    22  H   -0.000099  -0.000002  -0.000004   0.000000   0.003876
    23  H   -0.002997   0.000016  -0.000058   0.000000  -0.000007
    24  N   -0.005164   0.375429   0.355031   0.000000   0.000027
    25  H    0.412338  -0.000511   0.004303  -0.000000  -0.000000
    26  O   -0.000511   7.842031  -0.075177  -0.000000  -0.000001
    27  O    0.004303  -0.075177   7.859736   0.000000  -0.000001
    28  H   -0.000000  -0.000000   0.000000   0.482933  -0.000000
    29  H   -0.000000  -0.000001  -0.000001  -0.000000   0.251669
 Mulliken charges:
               1
     1  C   -0.721823
     2  C   -0.359993
     3  C   -0.188284
     4  N   -0.674844
     5  C    0.799717
     6  O   -0.754602
     7  N   -0.658193
     8  C    0.063787
     9  C    0.897283
    10  C   -0.962412
    11  C   -0.344912
    12  C    0.198960
    13  C   -0.497719
    14  H    0.220846
    15  H    0.219062
    16  H    0.229684
    17  H    0.231286
    18  H    0.232030
    19  H    0.232922
    20  H    0.482577
    21  H    0.296129
    22  H    0.276267
    23  H    0.277804
    24  N   -0.293589
    25  H    0.283584
    26  O   -0.101120
    27  O   -0.110647
    28  H    0.225309
    29  H    0.500892
 Sum of Mulliken charges =  -0.00000
 Mulliken charges with hydrogens summed into heavy atoms:
               1
     1  C   -0.056605
     2  C    0.100977
     3  C    0.276668
     4  N   -0.192267
     5  C    0.799717
     6  O   -0.754602
     7  N   -0.157301
     8  C    0.063787
     9  C    1.193411
    10  C   -0.686145
    11  C   -0.067109
    12  C    0.482544
    13  C   -0.497719
    24  N   -0.293589
    26  O   -0.101120
    27  O   -0.110647
 Electronic spatial extent (au):  <R**2>=           6170.2490
 Charge=             -0.0000 electrons
 Dipole moment (field-independent basis, Debye):
    X=              7.3862    Y=             12.7092    Z=              0.5907  Tot=             14.7115
 Quadrupole moment (field-independent basis, Debye-Ang):
   XX=            -93.2612   YY=            -91.0151   ZZ=            -99.2412
   XY=            -16.3958   XZ=              5.4242   YZ=             -1.6342
 Traceless Quadrupole moment (field-independent basis, Debye-Ang):
   XX=              1.2446   YY=              3.4907   ZZ=             -4.7354
   XY=            -16.3958   XZ=              5.4242   YZ=             -1.6342
 Octapole moment (field-independent basis, Debye-Ang**2):
  XXX=            171.6062  YYY=             76.9082  ZZZ=              0.7088  XYY=             26.1077
  XXY=            118.3193  XXZ=            -20.2679  XZZ=             10.2185  YZZ=             -6.3209
  YYZ=              4.9779  XYZ=              3.6206
 Hexadecapole moment (field-independent basis, Debye-Ang**3):
 XXXX=          -7028.2294 YYYY=          -1040.3383 ZZZZ=           -163.1525 XXXY=           -322.3212
 XXXZ=            150.0754 YYYX=            -95.8384 YYYZ=            -15.1987 ZZZX=             -4.3116
 ZZZY=              2.7303 XXYY=          -1429.0737 XXZZ=          -1226.5512 YYZZ=           -226.5022
 XXYZ=              9.9732 YYXZ=              4.2616 ZZXY=             12.6084
 N-N= 1.026319140956D+03 E-N=-3.865002790001D+03  KE= 7.709816827155D+02
 D1PCM: PCM CHGder 1st derivatives, ID1Alg=3 FixD1E=F DoIter=F DoCFld=F I1PDM=0.
 Calling FoFJK, ICntrl=      2127 FMM=F ISym2X=0 I1Cent= 0 IOpClX= 0 NMat=1 NMatS=1 NMatT=0.
 ***** Axes restored to original set *****
 -------------------------------------------------------------------
 Center     Atomic                   Forces (Hartrees/Bohr)
 Number     Number              X              Y              Z
 -------------------------------------------------------------------
      1        6           0.008278369   -0.019506806    0.008631787
      2        6          -0.005316963   -0.006505339    0.004064835
      3        6           0.006838750    0.004415583   -0.002933645
      4        7          -0.025859508   -0.020568369    0.010921392
      5        6           0.005155887   -0.008612198   -0.013390435
      6        8           0.016921814    0.032065283    0.007703619
      7        7          -0.002960268    0.027363523    0.020445393
      8        6           0.010283778    0.004190918   -0.007566612
      9        6           0.004494918   -0.000065882    0.002153961
     10        6           0.000465279    0.001851547   -0.000548550
     11        6           0.008983086    0.005831438   -0.008672409
     12        6          -0.006259139    0.012068866    0.006026126
     13        6          -0.010049038   -0.032371907   -0.006265878
     14        1           0.000836848    0.009342412    0.006139295
     15        1          -0.007674539   -0.000758448   -0.006604392
     16        1          -0.005297063    0.007964233   -0.003626402
     17        1           0.006636126   -0.001068340    0.007182442
     18        1           0.004117883   -0.007633262    0.006151134
     19        1          -0.008449020    0.001615910   -0.006237771
     20        1           0.008263454    0.011827103    0.000581905
     21        1           0.005032270    0.000579525   -0.007445906
     22        1           0.001067860   -0.002616264   -0.002805467
     23        1          -0.000250314   -0.000249545    0.001087483
     24        7           0.032058254    0.114962152    0.024405182
     25        1           0.001117197    0.003605710    0.001770081
     26        8          -0.109010759   -0.042475075    0.004109883
     27        8           0.075852002   -0.083527164   -0.032237512
     28        1           0.000854444    0.014627350   -0.011455498
     29        1          -0.016131608   -0.026352954   -0.001584042
 -------------------------------------------------------------------
 Cartesian Forces:  Max     0.114962152 RMS     0.024242945

 GradGradGradGradGradGradGradGradGradGradGradGradGradGradGradGradGradGrad
 Berny optimization.
 FormGI is forming the generalized inverse of G from B-inverse, IUseBI=4.
 GSVD:  received Info=                   1 from GESDD.
 Internal  Forces:  Max     0.116989503 RMS     0.016049316
 Search for a local minimum.
 Step number   1 out of a maximum of  151
 All quantities printed in internal units (Hartrees-Bohrs-Radians)
 Mixed Optimization -- RFO/linear search
 Second derivative matrix not updated -- first step.
 ITU=  0
     Eigenvalues ---    0.00350   0.00465   0.00993   0.01159   0.01336
     Eigenvalues ---    0.01336   0.01467   0.01628   0.01681   0.01793
     Eigenvalues ---    0.01900   0.01931   0.02022   0.02073   0.02097
     Eigenvalues ---    0.02113   0.02136   0.02143   0.02177   0.02181
     Eigenvalues ---    0.03827   0.04445   0.04970   0.05566   0.05747
     Eigenvalues ---    0.05944   0.07972   0.09180   0.11923   0.12670
     Eigenvalues ---    0.16000   0.16000   0.16000   0.16000   0.16000
     Eigenvalues ---    0.16000   0.16000   0.16000   0.16000   0.21958
     Eigenvalues ---    0.22000   0.22000   0.22000   0.22004   0.23449
     Eigenvalues ---    0.23490   0.25000   0.25000   0.25000   0.25000
     Eigenvalues ---    0.25000   0.25000   0.29292   0.30103   0.32324
     Eigenvalues ---    0.32328   0.32407   0.32454   0.32502   0.32561
     Eigenvalues ---    0.35630   0.35690   0.35711   0.36937   0.37230
     Eigenvalues ---    0.37881   0.39547   0.40411   0.41035   0.41444
     Eigenvalues ---    0.42436   0.43730   0.44759   0.45640   0.46542
     Eigenvalues ---    0.50518   0.51092   0.52284   0.57101   0.57105
     Eigenvalues ---    0.95140
 RFO step:  Lambda=-6.48195521D-02 EMin= 3.50229510D-03
 Linear search not attempted -- first point.
 Maximum step size (   0.300) exceeded in Quadratic search.
    -- Step size scaled by   0.852
 Iteration  1 RMS(Cart)=  0.06779346 RMS(Int)=  0.00078110
 Iteration  2 RMS(Cart)=  0.00174232 RMS(Int)=  0.00004985
 Iteration  3 RMS(Cart)=  0.00000106 RMS(Int)=  0.00004985
 Iteration  4 RMS(Cart)=  0.00000000 RMS(Int)=  0.00004985
 Variable       Old X    -DE/DX   Delta X   Delta X   Delta X     New X
                                 (Linear)    (Quad)   (Total)
    R1        2.87758   0.00458   0.00000   0.01065   0.01065   2.88824
    R2        2.09829  -0.01088   0.00000  -0.02374  -0.02374   2.07455
    R3        2.09935  -0.00999   0.00000  -0.02182  -0.02182   2.07752
    R4        2.02201   0.01769   0.00000   0.03447   0.03447   2.05648
    R5        2.89398  -0.00611   0.00000  -0.01454  -0.01454   2.87944
    R6        2.10105  -0.00960   0.00000  -0.02103  -0.02103   2.08002
    R7        2.10021  -0.00929   0.00000  -0.02032  -0.02032   2.07988
    R8        2.74539   0.00033   0.00000   0.00063   0.00063   2.74602
    R9        2.10256  -0.01026   0.00000  -0.02253  -0.02253   2.08003
   R10        2.10247  -0.01026   0.00000  -0.02251  -0.02251   2.07996
   R11        2.57629  -0.00999   0.00000  -0.01448  -0.01448   2.56181
   R12        1.95071  -0.01435   0.00000  -0.02499  -0.02499   1.92572
   R13        2.30650   0.03688   0.00000   0.03091   0.03091   2.33742
   R14        2.58780   0.00397   0.00000   0.00588   0.00588   2.59367
   R15        2.72174  -0.03458   0.00000  -0.06398  -0.06398   2.65776
   R16        1.86046   0.03052   0.00000   0.04561   0.04561   1.90607
   R17        2.67926  -0.02373   0.00000  -0.04179  -0.04179   2.63747
   R18        2.65986  -0.00487   0.00000  -0.00831  -0.00841   2.65145
   R19        2.66467  -0.01330   0.00000  -0.02303  -0.02293   2.64174
   R20        2.02641   0.00768   0.00000   0.01507   0.01507   2.04148
   R21        2.63414  -0.00172   0.00000  -0.00221  -0.00230   2.63184
   R22        2.04664   0.00271   0.00000   0.00547   0.00547   2.05211
   R23        2.63091  -0.00538   0.00000  -0.00786  -0.00786   2.62305
   R24        2.04570   0.00092   0.00000   0.00185   0.00185   2.04755
   R25        2.65221  -0.01045   0.00000  -0.01709  -0.01700   2.63522
   R26        2.04536   0.00253   0.00000   0.00511   0.00511   2.05047
   R27        2.69637  -0.01150   0.00000  -0.02044  -0.02044   2.67593
   R28        2.53311  -0.11675   0.00000  -0.15638  -0.15638   2.37673
   R29        2.53308  -0.11699   0.00000  -0.15670  -0.15670   2.37638
    A1        1.91871   0.00219   0.00000   0.00756   0.00748   1.92619
    A2        1.92965   0.00087   0.00000   0.00303   0.00297   1.93262
    A3        1.88959   0.00740   0.00000   0.02900   0.02886   1.91845
    A4        1.90222  -0.00235   0.00000  -0.01078  -0.01077   1.89144
    A5        1.91737  -0.00457   0.00000  -0.01682  -0.01698   1.90039
    A6        1.90628  -0.00359   0.00000  -0.01214  -0.01226   1.89402
    A7        1.93324  -0.00083   0.00000  -0.00072  -0.00071   1.93254
    A8        1.90565   0.00205   0.00000   0.01084   0.01084   1.91649
    A9        1.89736   0.00157   0.00000   0.00898   0.00897   1.90633
   A10        1.91648  -0.00094   0.00000  -0.00610  -0.00612   1.91036
   A11        1.90988  -0.00026   0.00000  -0.00261  -0.00263   1.90724
   A12        1.90083  -0.00158   0.00000  -0.01042  -0.01050   1.89033
   A13        1.93759  -0.00396   0.00000  -0.01048  -0.01046   1.92712
   A14        1.90413   0.00182   0.00000   0.00663   0.00664   1.91076
   A15        1.90639   0.00165   0.00000   0.00585   0.00586   1.91225
   A16        1.90681   0.00131   0.00000   0.00437   0.00439   1.91120
   A17        1.90607   0.00145   0.00000   0.00494   0.00496   1.91103
   A18        1.90254  -0.00228   0.00000  -0.01144  -0.01145   1.89109
   A19        2.12692  -0.00324   0.00000  -0.00969  -0.00969   2.11724
   A20        2.07745   0.00008   0.00000  -0.00098  -0.00098   2.07647
   A21        2.07881   0.00316   0.00000   0.01067   0.01067   2.08948
   A22        2.08058   0.01749   0.00000   0.04733   0.04732   2.12791
   A23        2.08442  -0.02664   0.00000  -0.07207  -0.07207   2.01235
   A24        2.11818   0.00915   0.00000   0.02474   0.02474   2.14292
   A25        2.23661  -0.00578   0.00000  -0.01729  -0.01729   2.21932
   A26        2.02328   0.00748   0.00000   0.02603   0.02602   2.04930
   A27        2.02329  -0.00170   0.00000  -0.00873  -0.00874   2.01456
   A28        2.17506  -0.00559   0.00000  -0.01497  -0.01492   2.16014
   A29        2.05039  -0.00197   0.00000  -0.00519  -0.00514   2.04525
   A30        2.05774   0.00756   0.00000   0.02015   0.02005   2.07779
   A31        2.11314  -0.01273   0.00000  -0.03913  -0.03903   2.07411
   A32        2.13080   0.00166   0.00000   0.00173   0.00167   2.13247
   A33        2.03924   0.01108   0.00000   0.03740   0.03735   2.07659
   A34        2.11619  -0.00147   0.00000  -0.00230  -0.00249   2.11370
   A35        2.09977  -0.00225   0.00000  -0.01017  -0.01008   2.08969
   A36        2.06722   0.00373   0.00000   0.01248   0.01257   2.07979
   A37        2.09858  -0.00042   0.00000   0.00250   0.00241   2.10099
   A38        2.09236   0.00067   0.00000   0.00047   0.00052   2.09288
   A39        2.09224  -0.00024   0.00000  -0.00297  -0.00293   2.08931
   A40        2.10139  -0.01396   0.00000  -0.03869  -0.03860   2.06279
   A41        2.07215   0.01029   0.00000   0.03190   0.03184   2.10399
   A42        2.10964   0.00367   0.00000   0.00680   0.00674   2.11638
   A43        2.07932   0.02103   0.00000   0.05746   0.05765   2.13697
   A44        2.10567  -0.01274   0.00000  -0.03476  -0.03485   2.07082
   A45        2.09819  -0.00829   0.00000  -0.02271  -0.02280   2.07539
   A46        2.10372  -0.00634   0.00000  -0.01714  -0.01714   2.08658
   A47        2.10645  -0.00766   0.00000  -0.02073  -0.02073   2.08572
   A48        2.07301   0.01400   0.00000   0.03788   0.03787   2.11088
    D1       -3.12078  -0.00062   0.00000  -0.00438  -0.00443  -3.12521
    D2        1.04985  -0.00026   0.00000  -0.00341  -0.00345   1.04641
    D3       -1.02175  -0.00045   0.00000  -0.00233  -0.00238  -1.02412
    D4        1.06141   0.00033   0.00000   0.00221   0.00224   1.06366
    D5       -1.05114   0.00069   0.00000   0.00318   0.00322  -1.04792
    D6       -3.12274   0.00049   0.00000   0.00427   0.00429  -3.11844
    D7       -1.02616  -0.00038   0.00000  -0.00271  -0.00270  -1.02886
    D8       -3.13871  -0.00002   0.00000  -0.00174  -0.00172  -3.14043
    D9        1.07288  -0.00022   0.00000  -0.00066  -0.00065   1.07222
   D10        3.13390  -0.00006   0.00000  -0.00001  -0.00001   3.13389
   D11        1.03162  -0.00039   0.00000  -0.00316  -0.00315   1.02846
   D12       -1.04645   0.00032   0.00000   0.00333   0.00333  -1.04312
   D13       -1.04315   0.00135   0.00000   0.00907   0.00906  -1.03409
   D14        3.13775   0.00102   0.00000   0.00592   0.00591  -3.13952
   D15        1.05968   0.00173   0.00000   0.01241   0.01239   1.07208
   D16        1.04234  -0.00132   0.00000  -0.00901  -0.00899   1.03335
   D17       -1.05994  -0.00165   0.00000  -0.01216  -0.01214  -1.07208
   D18       -3.13801  -0.00094   0.00000  -0.00567  -0.00566   3.13952
   D19       -3.14066  -0.00009   0.00000  -0.00073  -0.00073  -3.14139
   D20        0.00072  -0.00001   0.00000   0.00017   0.00017   0.00089
   D21       -1.03997   0.00053   0.00000   0.00375   0.00375  -1.03622
   D22        2.10142   0.00062   0.00000   0.00465   0.00464   2.10606
   D23        1.03950  -0.00059   0.00000  -0.00461  -0.00460   1.03489
   D24       -2.10230  -0.00051   0.00000  -0.00371  -0.00371  -2.10601
   D25       -0.00023  -0.00014   0.00000  -0.00132  -0.00133  -0.00156
   D26        3.14095   0.00026   0.00000   0.00259   0.00261  -3.13963
   D27        3.14157  -0.00022   0.00000  -0.00222  -0.00223   3.13934
   D28       -0.00043   0.00017   0.00000   0.00169   0.00170   0.00127
   D29       -3.14146  -0.00027   0.00000  -0.00281  -0.00281   3.13892
   D30        0.00014   0.00016   0.00000   0.00175   0.00178   0.00192
   D31       -0.00029   0.00013   0.00000   0.00120   0.00117   0.00088
   D32        3.14131   0.00057   0.00000   0.00575   0.00576  -3.13611
   D33        0.18671   0.00011   0.00000   0.00094   0.00088   0.18759
   D34       -2.95480  -0.00031   0.00000  -0.00341  -0.00339  -2.95819
   D35       -2.95489  -0.00032   0.00000  -0.00362  -0.00363  -2.95852
   D36        0.18679  -0.00074   0.00000  -0.00796  -0.00790   0.17888
   D37        3.14155  -0.00062   0.00000  -0.00636  -0.00634   3.13521
   D38       -0.00031  -0.00010   0.00000  -0.00112  -0.00116  -0.00146
   D39       -0.00012  -0.00020   0.00000  -0.00200  -0.00200  -0.00212
   D40        3.14121   0.00031   0.00000   0.00324   0.00319  -3.13879
   D41       -3.14145   0.00049   0.00000   0.00506   0.00507  -3.13638
   D42       -0.00003   0.00047   0.00000   0.00486   0.00490   0.00487
   D43        0.00022   0.00011   0.00000   0.00101   0.00101   0.00123
   D44       -3.14155   0.00009   0.00000   0.00081   0.00085  -3.14071
   D45       -0.00006   0.00003   0.00000   0.00028   0.00028   0.00022
   D46        3.14152  -0.00008   0.00000  -0.00086  -0.00085   3.14067
   D47       -3.14140  -0.00046   0.00000  -0.00469  -0.00474   3.13705
   D48        0.00018  -0.00057   0.00000  -0.00582  -0.00586  -0.00569
   D49       -0.00014   0.00017   0.00000   0.00171   0.00179   0.00165
   D50        3.14145   0.00030   0.00000   0.00295   0.00302  -3.13871
   D51       -3.14156   0.00019   0.00000   0.00191   0.00195  -3.13961
   D52        0.00003   0.00032   0.00000   0.00315   0.00319   0.00322
   D53       -0.00005  -0.00035   0.00000  -0.00349  -0.00344  -0.00348
   D54       -3.14157   0.00031   0.00000   0.00304   0.00309  -3.13847
   D55        3.14155  -0.00048   0.00000  -0.00473  -0.00468   3.13687
   D56        0.00003   0.00018   0.00000   0.00180   0.00186   0.00188
   D57        0.00014   0.00025   0.00000   0.00248   0.00245   0.00259
   D58       -3.14144   0.00036   0.00000   0.00362   0.00359  -3.13785
   D59       -3.14152  -0.00042   0.00000  -0.00418  -0.00413   3.13754
   D60        0.00009  -0.00031   0.00000  -0.00305  -0.00300  -0.00291
   D61       -0.71453   0.00347   0.00000   0.03772   0.03769  -0.67683
   D62        2.42698   0.00362   0.00000   0.03936   0.03933   2.46631
   D63        2.42705   0.00335   0.00000   0.03658   0.03661   2.46366
   D64       -0.71462   0.00350   0.00000   0.03821   0.03824  -0.67638
         Item               Value     Threshold  Converged?
 Maximum Force            0.116990     0.000450     NO 
 RMS     Force            0.016049     0.000300     NO 
 Maximum Displacement     0.276033     0.001800     NO 
 RMS     Displacement     0.068268     0.001200     NO 
 Predicted change in Energy=-3.483567D-02
 GradGradGradGradGradGradGradGradGradGradGradGradGradGradGradGradGradGrad

                          Input orientation:                          
 ---------------------------------------------------------------------
 Center     Atomic      Atomic             Coordinates (Angstroms)
 Number     Number       Type             X           Y           Z
 ---------------------------------------------------------------------
      1          6           0       11.924480    0.028249   -7.471374
      2          6           0       10.785286   -0.249779   -6.491114
      3          6           0       10.648263    0.887970   -5.486867
      4          7           0        9.557032    0.621692   -4.564967
      5          6           0        9.240474    1.494518   -3.577164
      6          8           0        9.862464    2.551126   -3.413919
      7          7           0        8.190639    1.118958   -2.776794
      8          6           0        7.658529    1.828327   -1.685148
      9          6           0        7.994676    3.147971   -1.379392
     10          6           0        6.734768    1.154657   -0.871826
     11          6           0        6.152443    1.781394    0.227144
     12          6           0        6.476151    3.094577    0.539334
     13          6           0        7.396698    3.756886   -0.272184
     14          1           0       12.007107   -0.786841   -8.202113
     15          1           0       12.882795    0.115443   -6.939715
     16          1           0       10.976586   -1.191502   -5.954363
     17          1           0        9.843476   -0.355929   -7.050671
     18          1           0       10.454832    1.829552   -6.023112
     19          1           0       11.587199    0.996909   -4.922951
     20          1           0        9.023201   -0.240236   -4.667738
     21          1           0        8.697621    3.714829   -1.972350
     22          1           0        6.465865    0.127384   -1.099081
     23          1           0        5.443317    1.242010    0.843757
     24          7           0        7.741494    5.095504    0.035050
     25          1           0        6.026323    3.584639    1.396569
     26          8           0        8.932581    5.476013   -0.100456
     27          8           0        6.852220    5.886449    0.441209
     28          1           0       11.737739    0.959668   -8.002281
     29          1           0        7.744020    0.237641   -2.979724
 ---------------------------------------------------------------------
                    Distance matrix (angstroms):
                    1          2          3          4          5
     1  C    0.000000
     2  C    1.528389   0.000000
     3  C    2.511199   1.523732   0.000000
     4  N    3.795285   2.445018   1.453131   0.000000
     5  C    4.951636   3.730967   2.448823   1.355650   0.000000
     6  O    5.203822   4.262135   2.771404   2.267359   1.236908
     7  N    6.096745   4.733054   3.665756   2.304748   1.372513
     8  C    7.410737   6.098560   4.927053   3.654263   2.488715
     9  C    7.892291   6.742544   5.387066   4.355562   3.019291
    10  C    8.470887   7.067922   6.056828   4.678516   3.703096
    11  C    9.780446   8.409750   7.325335   5.991699   4.908258
    12  C   10.161599   8.898346   7.654458   6.454523   5.210300
    13  C    9.286112   8.137013   6.782055   5.737984   4.409162
    14  H    1.097806   2.169977   3.467566   4.606047   5.852265
    15  H    1.099379   2.175816   2.775013   4.117817   5.145396
    16  H    2.165090   1.100699   2.156514   2.689466   3.984955
    17  H    2.157582   1.100627   2.154171   2.686359   3.981585
    18  H    2.738982   2.156813   1.100704   2.095509   2.751285
    19  H    2.747093   2.157876   1.100667   2.095357   2.750614
    20  H    4.043498   2.535692   2.141180   1.019048   2.060566
    21  H    7.364968   6.363622   4.914058   4.126469   2.792830
    22  H    8.391211   6.919080   6.109305   4.670334   3.963383
    23  H   10.612261   9.195781   8.203268   6.823616   5.833242
    24  N    9.976014   8.968140   7.526235   6.668682   5.316214
    25  H   11.228383   9.978278   8.718718   7.535573   6.279920
    26  O    9.641578   8.778252   7.280599   6.624668   5.294771
    27  O   11.074985  10.058797   8.633471   7.752127   6.414058
    28  H    1.088244   2.157210   2.742154   4.084709   5.109213
    29  H    6.139626   4.670839   3.891442   2.438750   2.043539
                    6          7          8          9         10
     6  O    0.000000
     7  N    2.291731   0.000000
     8  C    2.892822   1.406426   0.000000
     9  C    2.825625   2.471442   1.395687   0.000000
    10  C    4.265541   2.397861   1.403089   2.412114   0.000000
    11  C    5.254911   3.690083   2.434617   2.800413   1.392709
    12  C    5.233609   4.223653   2.819526   2.447505   2.412788
    13  C    4.171853   3.723181   2.405070   1.397951   2.751239
    14  H    6.218386   6.901564   8.259544   8.839223   9.235804
    15  H    5.242727   6.352423   7.605090   8.000445   8.700429
    16  H    4.658582   4.816293   6.193147   6.975182   7.023508
    17  H    4.655889   4.813854   6.191430   6.918004   7.079835
    18  H    2.771183   4.021205   5.161128   5.418000   6.389843
    19  H    2.769021   4.019640   5.158398   5.485444   6.323178
    20  H    3.173031   2.473103   3.877773   4.832290   4.646676
    21  H    2.188421   2.764544   2.172806   1.080305   3.408581
    22  H    4.771780   2.602458   2.158502   3.397026   1.085930
    23  H    6.274588   4.546571   3.412667   3.883879   2.149117
    24  N    4.782025   4.890921   3.693293   2.420255   4.167277
    25  H    6.238984   5.308559   3.904575   3.430897   3.398871
    26  O    4.516490   5.166932   4.176131   2.816935   4.909125
    27  O    5.920132   5.905580   4.651869   3.481244   4.911997
    28  H    5.206003   6.317675   7.569722   7.915924   8.712699
    29  H    3.166788   1.008648   2.052685   3.330752   2.510526
                   11         12         13         14         15
    11  C    0.000000
    12  C    1.388056   0.000000
    13  C    2.387481   1.394496   0.000000
    14  H   10.579476  11.048519  10.236459   0.000000
    15  H    9.971806  10.288659   9.370877   1.781739   0.000000
    16  H    8.385792   8.988464   8.342020   2.505614   2.512500
    17  H    8.435549   8.991833   8.297582   2.488534   3.077656
    18  H    7.588055   7.777910   6.792641   3.742074   3.110199
    19  H    7.528312   7.769143   6.841594   3.756459   2.553994
    20  H    6.023962   6.687454   6.159821   4.657712   4.492756
    21  H    3.879933   3.410014   2.141199   8.368254   7.426034
    22  H    2.143095   3.389505   3.837120   9.055067   8.676989
    23  H    1.083516   2.142761   3.374258  11.359020  10.825776
    24  N    3.680395   2.420558   1.416042  10.984002   9.994064
    25  H    2.152940   1.085061   2.166179  12.124946  11.337555
    26  O    4.635375   3.480605   2.311672  10.691721   9.545437
    27  O    4.169771   2.818795   2.310936  12.075292  11.142279
    28  H    9.979690  10.256770   9.296423   1.778422   1.775645
    29  H    3.898756   4.706734   4.453817   6.818858   6.488719
                   16         17         18         19         20
    16  H    0.000000
    17  H    1.784380   0.000000
    18  H    3.066548   2.491177   0.000000
    19  H    2.495155   3.065605   1.784909   0.000000
    20  H    2.525079   2.522817   2.858431   2.858277   0.000000
    21  H    6.717306   6.608586   4.801118   4.943966   4.797256
    22  H    6.757206   6.860268   6.561655   6.450281   4.405726
    23  H    9.096894   9.178061   8.521407   8.429845   6.737151
    24  N    9.266355   9.183894   7.397971   7.494645   7.226971
    25  H   10.067414  10.072468   8.817238   8.806590   7.770892
    26  O    9.105050   9.118486   7.119816   7.096889   7.317362
    27  O   10.392840  10.200156   8.439471   8.666132   8.267453
    28  H    3.066081   2.494913   2.513894   3.083232   4.464041
    29  H    4.619569   4.618729   4.375488   4.372945   2.171189
                   21         22         23         24         25
    21  H    0.000000
    22  H    4.314290   0.000000
    23  H    4.963445   2.462238   0.000000
    24  N    2.617269   5.253161   4.559061   0.000000
    25  H    4.301441   4.286500   2.476572   2.660500   0.000000
    26  O    2.580884   5.974092   5.567161   1.257711   3.776865
    27  O    3.734529   5.973994   4.870099   1.257525   2.625481
    28  H    7.293374   8.725797  10.860565   9.883006  11.307039
    29  H    3.743661   2.276544   4.573948   5.717316   5.771033
                   26         27         28         29
    26  O    0.000000
    27  O    2.188552   0.000000
    28  H    9.523924  10.928586   0.000000
    29  H    6.094539   6.663867   6.457337   0.000000
 Stoichiometry    C10H13N3O3
 Framework group  C1[X(C10H13N3O3)]
 Deg. of freedom    81
 Full point group                 C1      NOp   1
 Largest Abelian subgroup         C1      NOp   1
 Largest concise Abelian subgroup C1      NOp   1
                         Standard orientation:                         
 ---------------------------------------------------------------------
[...]
 0000485,0.00000354,0.00012879,0.00003233,0.00020728,0.00091701,0.00023
 633,0.00137192,0.11164822,0.14009446,-0.00000419,-0.00001136,-0.000006
 34,0.00002383,0.00001974,-0.00000231,-0.00005454,-0.00005689,0.0000280
 0,0.00020345,-0.00002285,-0.00023481,-0.00063930,-0.00037653,0.0000447
 3,0.00018249,0.00017148,-0.00001572,0.00119274,0.00077075,-0.00085172,
 0.00392441,-0.00380121,0.00016356,-0.00042293,-0.00066110,-0.00072918,
 0.01556236,0.01348647,-0.00950545,0.11567091,0.08451358,-0.14884445,-0
 .00577705,-0.00578121,0.00875841,0.00228386,-0.00258398,0.00231745,0.0
 0000434,-0.00000011,-0.00000411,0.00000067,0.00000018,0.00000032,-0.00
 000052,-0.00000222,0.00000049,-0.00000231,-0.00000075,-0.00000071,0.00
 000839,0.00000483,-0.00000812,0.00001742,0.00000058,-0.00001050,0.0000
 0838,0.00002386,0.00001445,-0.00027763,0.00018891,-0.00014839,-0.00257
 877,0.00105290,-0.00050292,-0.12701554,-0.08760115,0.14991781,0.000005
 43,0.00001640,0.00000702,-0.00003406,-0.00003055,0.00000554,0.00011377
 ,0.00006723,-0.00006305,-0.00025146,0.00012647,0.00045708,0.00127126,0
 .00076908,-0.00095885,-0.00039581,-0.00055930,0.00008301,-0.00023398,0
 .00095630,0.00181220,0.00601435,0.00204783,0.00507593,0.00692383,0.008
 62662,-0.00899126,-0.00269468,0.00082902,0.00165989,0.00176300,-0.0033
 2548,0.00835491,-0.00606557,-0.02284163,-0.00923329,-0.09563033,-0.011
 50662,0.01302822,-0.00000670,-0.00000123,0.00000479,-0.00000285,0.0000
 0099,-0.00000046,0.00000176,0.00000004,-0.00000084,0.00000162,0.000001
 30,-0.00000114,-0.00002199,-0.00000553,0.00002925,-0.00003679,0.000000
 14,0.00001296,-0.00002140,-0.00005339,-0.00002359,-0.00458784,-0.00016
 415,-0.00060269,-0.00077302,0.00025450,-0.00036067,0.00048428,-0.00102
 848,-0.00018761,0.55071396,0.00002177,0.00006275,0.00003202,-0.0001159
 8,-0.00011060,0.00000208,0.00038627,0.00020928,-0.00023128,-0.00085352
 ,0.00069142,0.00166846,0.00375564,0.00142619,-0.00298083,-0.00183708,-
 0.00069585,0.00116041,-0.00406944,0.00038533,0.00487956,0.00719978,0.0
 0915736,-0.00965626,0.00617582,-0.03399406,-0.02473405,0.00015323,0.00
 175791,0.00165180,-0.00541042,0.00887623,0.00711698,-0.01977255,-0.038
 13434,0.00682309,-0.01145943,-0.12758953,-0.00967615,-0.00002544,0.000
 00079,0.00002341,-0.00000594,-0.00000038,-0.00000091,0.00000690,0.0000
 1097,-0.00000054,0.00001137,0.00000688,0.00000222,-0.00008217,-0.00001
 557,0.00008397,-0.00012265,-0.00000311,0.00006678,-0.00008925,-0.00013
 372,-0.00005270,-0.00024390,-0.00120482,0.00180553,0.00007892,-0.00009
 284,0.00038048,0.00039163,0.00038095,-0.00071643,0.10924776,0.64730631
 ,0.00000202,0.00001228,0.00000709,-0.00001660,-0.00002276,-0.00000388,
 0.00008258,0.00003796,-0.00004870,-0.00005223,0.00025937,0.00033714,0.
 00014185,-0.00025353,-0.00054052,-0.00042089,0.00039939,0.00057306,-0.
 00058565,-0.00117379,0.00082649,0.00754131,-0.00313513,-0.00307059,-0.
 01073651,-0.02923953,-0.00433820,0.00141073,0.00078879,-0.00347142,0.0
 0741400,0.00470244,0.00203587,-0.00775409,0.01220313,0.01339078,0.0141
 7778,-0.01012523,-0.10592095,-0.00000494,0.00000155,0.00000555,-0.0000
 0052,-0.00000142,0.00000004,-0.00000016,0.00000549,0.00000042,0.000001
 65,0.00000199,0.00000277,-0.00001469,-0.00000304,0.00000818,-0.0000183
 9,-0.00000564,0.00000940,-0.00003078,-0.00002130,0.00001253,-0.0004812
 3,0.00213646,-0.00294818,-0.00041757,0.00024527,-0.00044440,0.00061552
 ,0.00115211,0.00068474,-0.33068011,0.08011479,0.68752880,-0.00000021,-
 0.00000041,-0.00000048,0.00000079,0.00000079,0.00000047,0.00001631,-0.
 00000892,0.00001118,0.00005506,-0.00001553,0.00003321,-0.00025253,-0.0
 0004725,-0.00004314,-0.00000376,0.00013173,0.00000667,-0.00010103,0.00
 029330,-0.00057103,-0.00076960,-0.00008891,-0.00037174,0.00124561,-0.0
 0427755,0.00290323,0.00384355,-0.00331904,0.00237068,0.00788042,-0.004
 10735,-0.00692258,-0.09476382,0.04876674,0.10775238,-0.00354934,0.0090
 5571,0.01504495,0.00000012,0.00000005,-0.00000013,-0.00000043,-0.00000
 003,0.00000007,-0.00000004,0.00000059,0.00000003,-0.00000075,-0.000000
 40,-0.00000044,-0.00000287,0.00000567,0.00000144,-0.00000003,-0.000003
 47,-0.00001077,0.00001022,-0.00000685,0.00001265,0.00052081,0.00031016
 ,0.00099926,0.00014604,-0.00016676,-0.00044788,-0.00230850,0.00158417,
 -0.00190886,-0.00317453,0.00245108,-0.00075125,0.08965251,0.00000040,0
 .00000137,0.00000054,-0.00000127,-0.00000251,-0.00000096,0.00000618,0.
 00000554,-0.00001439,-0.00001002,0.00006265,0.00003564,0.00006566,-0.0
 0012217,-0.00009859,-0.00010982,0.00012375,0.00016655,0.00021069,0.000
 17118,0.00021791,-0.00016063,-0.00102443,0.00018687,-0.00345218,-0.001
 57925,0.00107701,-0.00340741,-0.00375360,-0.00140123,0.01212210,-0.006
 90754,-0.02293442,0.04938768,-0.11276450,-0.11131546,-0.00581845,0.011
 81409,0.01249582,-0.00000061,0.,0.00000056,0.00000004,-0.00000003,-0.0
 0000002,0.00000008,0.00000025,0.00000021,0.00000041,0.00000044,0.00000
 047,-0.00000131,-0.00000262,0.00000108,-0.00000296,0.00000107,0.000006
 09,-0.00000878,0.00000199,-0.00000198,-0.00042076,0.00069425,0.0004090
 1,0.00066183,-0.00036203,-0.00101770,0.00125915,0.00103008,0.00135195,
 0.00187765,-0.00089207,-0.00039611,-0.05040295,0.11603396,-0.00000005,
 -0.00000028,0.00000060,-0.00000081,-0.00000076,0.00000020,0.00000514,-
 0.00000672,0.00000232,0.00000981,-0.00003213,0.00004774,0.00005390,0.0
 0023347,-0.00010321,0.00009835,-0.00016109,-0.00019292,-0.00038408,0.0
 0023803,-0.00002309,-0.00064049,0.00018268,-0.00009195,0.00338374,0.00
 177604,0.00138060,0.00227428,-0.00129695,0.00308138,0.00219111,-0.0009
 0497,0.00102765,0.10837916,-0.11018777,-0.24623184,0.00626300,-0.00818
 008,-0.00932746,-0.00000002,-0.00000010,-0.00000012,-0.00000010,0.0000
 0002,0.00000020,0.00000006,0.00000011,-0.00000029,-0.00000034,-0.00000
 049,-0.00000069,-0.00000319,0.00000451,0.00000361,-0.00000268,-0.00000
 100,-0.00000468,0.00000569,-0.00001015,0.00000248,0.00049249,-0.000616
 50,0.00007046,0.00001941,0.00011698,-0.00008963,-0.00209058,0.00089779
 ,-0.00101632,-0.00084994,-0.00076614,-0.00376222,-0.11729580,0.1206127
 9,0.25269360,-0.00000500,-0.00001327,-0.00000679,0.00002567,0.00002333
 ,-0.00000360,-0.00008176,-0.00004769,0.00004855,0.00018196,-0.00012814
 ,-0.00035432,-0.00084723,-0.00044589,0.00064508,0.00034642,0.00024065,
 -0.00018915,0.00076861,-0.00021332,-0.00108557,-0.00163331,-0.00071069
 ,0.00065354,-0.00144149,0.00388404,0.00544678,-0.00002926,0.00000398,0
 .00045493,-0.00096362,-0.00208359,-0.00141149,0.00532890,-0.00072188,-
 0.00266339,-0.00768635,-0.03357250,0.01597116,0.00000524,0.00000076,-0
 .00000403,0.00000229,-0.00000082,0.00000035,-0.00000150,-0.00000075,0.
 00000042,-0.00000127,-0.00000122,0.00000040,0.00001687,0.00000446,-0.0
 0002011,0.00002820,-0.00000071,-0.00001266,0.00001679,0.00003342,0.000
 01510,0.00134576,0.00046433,-0.00050307,0.00016092,-0.00005282,-0.0001
 0070,-0.00039414,-0.00035415,-0.00026734,-0.28151027,-0.16655674,0.163
 32343,0.00041193,0.00023914,-0.00039497,0.33133179,-0.00001091,-0.0000
 2991,-0.00001545,0.00005516,0.00005393,-0.00000092,-0.00018005,-0.0001
 0589,0.00012220,0.00040105,-0.00034662,-0.00080849,-0.00178881,-0.0005
 3372,0.00146207,0.00095933,0.00026052,-0.00064079,0.00139372,-0.000605
 23,-0.00204469,-0.00178903,0.00087726,0.00361515,-0.00309763,-0.003132
 20,0.00116636,-0.00110093,-0.00094196,0.00088370,-0.00110019,-0.004125
 35,0.00015175,0.00362950,-0.00242912,-0.00821314,-0.04269586,-0.033953
 84,0.02472612,0.00001225,-0.00000001,-0.00001104,0.00000305,-0.0000001
 8,0.00000061,-0.00000328,-0.00000469,0.00000015,-0.00000551,-0.0000039
 7,-0.00000163,0.00003902,0.00001004,-0.00004098,0.00005954,0.00000113,
 -0.00003312,0.00004638,0.00006461,0.00003168,-0.00186608,-0.00306203,0
 .00041108,-0.00007035,-0.00016168,-0.00010887,-0.00015525,-0.00102771,
 -0.00014267,-0.15198104,-0.24273941,0.10055780,-0.00000622,0.00058080,
 0.00001410,0.19696381,0.24048709,0.00000052,-0.00000030,-0.00000086,-0
 .00000123,0.00000195,0.00000185,-0.00000737,0.00000220,-0.00000135,-0.
 00001926,-0.00005225,-0.00001565,0.00014547,0.00023529,0.00006362,0.00
 008642,-0.00015493,-0.00015157,-0.00022357,-0.00007678,0.00023253,-0.0
 0020802,0.00194630,0.00030600,0.00161618,-0.00712853,-0.00554259,-0.00
 011809,-0.00065952,0.00021184,-0.00117561,0.00106647,0.00074201,0.0000
 5196,-0.00243815,0.00213052,0.01097692,0.01329010,0.01310898,0.0000003
 3,-0.00000076,-0.00000081,-0.00000015,0.00000071,0.00000004,0.00000068
 ,-0.00000249,-0.00000040,0.00000016,0.00000011,-0.00000072,0.00000069,
 -0.00000013,0.00000395,-0.00000128,0.00000141,-0.00000007,0.00000368,0
 .00000444,-0.00000458,-0.00192255,-0.00273667,0.00161756,-0.00010498,-
 0.00008859,0.00019033,-0.00014686,0.00011898,-0.00016933,0.17124641,0.
 11856450,-0.22704123,-0.00029987,-0.00012365,0.00066182,-0.27032867,-0
 .13043759,0.29276269,-0.00000031,0.00000406,0.00000064,-0.00000211,-0.
 00000493,0.00000106,0.00002157,-0.00000384,0.00000740,-0.00002759,0.00
 004361,0.00004686,0.00002571,-0.00007751,-0.00005542,-0.00008533,0.000
 08592,0.00012098,-0.00028962,-0.00005276,-0.00006110,0.00030412,0.0009
 8107,-0.00102999,0.00222865,-0.00218245,0.00009634,0.00028882,-0.00056
 766,-0.00039250,0.00000836,0.00154750,-0.00024289,-0.00313592,-0.00644
 838,0.00204555,0.01663096,0.00811699,0.00791146,-0.00000104,0.00000054
 ,0.00000137,0.00000035,-0.00000069,0.,0.00000023,0.00000146,-0.0000002
 8,0.00000055,0.00000040,0.00000094,-0.00000373,-0.00000001,-0.00000064
 ,-0.00000180,-0.00000106,0.00000235,-0.00000329,-0.00000373,-0.0000009
 2,0.00049783,0.00003659,-0.00044238,0.00007416,-0.00003718,-0.00010018
 ,0.00003364,0.00002437,0.00001110,-0.17163864,0.08087797,0.15712419,0.
 00111979,-0.00196175,-0.00154912,-0.04543266,0.00215065,0.09039665,0.1
 9942510,-0.00001141,-0.00003424,-0.00001727,0.00006299,0.00006237,-0.0
 0000061,-0.00022292,-0.00010434,0.00011963,0.00046792,-0.00038684,-0.0
 0092526,-0.00211601,-0.00080563,0.00177977,0.00095532,0.00042850,-0.00
 053645,0.00162807,-0.00134455,-0.00265102,-0.00195556,-0.00285865,0.00
 132171,-0.00630508,-0.00320277,0.00507354,0.00134946,-0.00085532,-0.00
 238669,0.00126112,0.00048708,-0.00104158,0.00059176,-0.00372493,-0.002
 67387,0.01704288,-0.03083174,-0.04749878,0.00001412,-0.00000087,-0.000
 01321,0.00000285,0.00000078,0.00000043,-0.00000314,-0.00000736,0.00000
 049,-0.00000634,-0.00000353,-0.00000194,0.00004674,0.00000843,-0.00004
 523,0.00006680,0.00000165,-0.00003741,0.00005060,0.00008354,0.00003758
 ,-0.00007716,0.00046255,0.00042781,0.00009179,-0.00015444,-0.00018275,
 -0.00021384,-0.00027802,0.00012115,0.06669913,-0.22435066,-0.15809230,
 -0.00012315,-0.00313088,-0.00185631,0.00298675,0.05075352,0.00868519,-
 0.08254884,0.21968011,-0.00000696,-0.00001894,-0.00001103,0.00003539,0
 .00003564,0.00000119,-0.00012521,-0.00006696,0.00007218,0.00024102,-0.
 00023788,-0.00052794,-0.00103657,-0.00029210,0.00100361,0.00055929,0.0
 0011183,-0.00036988,0.00063968,-0.00048923,-0.00142850,-0.00250278,-0.
 00236878,0.00107433,-0.00193637,-0.00017589,0.00521219,0.00065468,0.00
 015097,-0.00049644,-0.00053471,-0.00131205,-0.00094299,0.00552977,0.00
 566189,-0.00328471,0.01243500,-0.03615694,-0.01435983,0.00000819,-0.00
 000120,-0.00000816,0.00000147,0.00000104,0.00000017,-0.00000145,-0.000
 00568,0.00000026,-0.00000356,-0.00000237,-0.00000217,0.00002579,0.0000
 0328,-0.00002178,0.00003575,0.00000402,-0.00001843,0.00002798,0.000049
 10,0.00001632,-0.00034314,0.00009880,0.00101252,-0.00002171,-0.0000441
 3,0.00005704,-0.00012493,-0.00019972,0.00005855,0.14995484,-0.17556638
 ,-0.35364694,-0.00058813,0.00067326,0.00182799,0.09079757,0.00945956,-
 0.07907271,-0.25382951,0.20060230,0.44400332,-0.04936394,0.01691535,-0
 .01066711,0.00161477,-0.02461497,0.01409457,0.00079519,-0.00103556,-0.
 00054536,-0.00010159,0.00008788,-0.00022221,0.00002356,0.00003169,-0.0
 0015570,0.00000748,0.00005142,0.00005278,-0.00001624,-0.00001302,0.000
 02584,0.00000898,-0.00001117,-0.00000901,-0.00000050,0.00000278,0.0000
 0317,-0.00000201,0.00000047,0.00000277,-0.00000082,0.00000016,-0.00000
 093,-0.00000092,0.00000073,0.00000191,-0.00000040,0.00000003,-0.000001
 86,-0.00113190,0.00065173,-0.00067129,-0.00096675,0.02483435,-0.012019
 20,-0.00382369,-0.00044006,0.00396707,0.00121039,-0.00003019,-0.000932
 30,0.00003747,0.00044987,-0.00015634,0.00001705,0.00009133,0.00005205,
 0.00012921,0.00000414,-0.00004239,0.00000093,-0.00000135,0.00000033,0.
 00000051,0.00000006,0.00000016,-0.00000007,-0.00000005,0.00000031,-0.0
 0000023,-0.00000176,-0.00000076,0.00000023,-0.00000013,0.00000017,0.00
 000015,0.00000078,-0.00000002,-0.00000025,0.00000103,0.00000069,0.0515
 6115,0.01579200,-0.25354206,0.11474696,-0.00009810,-0.00332326,0.00130
 603,0.00021840,0.00067203,-0.00066758,0.00005016,0.00032828,-0.0000521
 0,-0.00001064,-0.00008757,-0.00005504,-0.00001921,0.00006258,0.0000639
 5,-0.00004081,0.00003120,0.00006933,0.00000666,-0.00002581,-0.00001665
 ,-0.00000375,0.00000836,0.00000165,-0.00000605,0.00000383,0.00000730,0
 .,-0.00000202,-0.00000043,-0.00000274,0.00000240,0.00000252,0.00000291
 ,-0.00000107,0.00000079,0.00194107,-0.01940573,0.01201171,0.00044757,0
 .00127416,-0.00108483,-0.00102101,0.00110086,0.00024797,-0.00026991,0.
 00021811,-0.00016158,0.00005876,0.00029385,0.00039977,-0.00012029,-0.0
 0003573,0.00003501,0.00004914,-0.00005388,-0.00008981,-0.00000003,-0.0
 0000224,-0.00000027,0.00000070,-0.00000019,-0.00000006,-0.00000049,0.0
 0000005,0.00000083,-0.00000199,-0.00000588,-0.00000020,0.00000003,-0.0
 0000010,0.00000021,0.00000147,0.00000312,-0.00000044,0.00000002,0.0000
 0273,0.00000116,-0.01697657,0.27248092,-0.00987533,0.11418417,-0.11259
 809,-0.00164106,0.01686124,-0.01058417,-0.00052191,0.00118050,0.000433
 32,0.00007474,-0.00024866,0.00006811,0.00000324,0.00002047,0.00014755,
 -0.00002478,-0.00007205,-0.00004438,0.00002173,0.00000159,-0.00003239,
 -0.00001370,0.00001678,0.00000976,0.00000499,-0.00000500,-0.00000083,0
 .00000428,-0.00000115,-0.00000384,0.00000003,0.00000083,0.00000157,0.0
 0000158,-0.00000184,-0.00000145,-0.00000189,0.00000003,-0.00000107,0.0
 0171240,-0.01938013,0.01257388,-0.00036500,0.01507899,-0.00854921,0.00
 368892,0.00013750,-0.00159612,-0.00025941,-0.00060137,0.00079897,0.000
 12365,-0.00034619,-0.00018573,-0.00002986,-0.00006503,-0.00005576,-0.0
 0012203,0.00000068,0.00007005,-0.00000067,0.00000187,-0.00000048,-0.00
 000074,0.,-0.00000012,0.00000014,0.00000012,-0.00000044,0.00000291,0.0
 0000430,-0.00000159,-0.00000017,0.00000013,-0.00000028,-0.00000212,-0.
 00000275,0.00000143,-0.00000070,-0.00000135,0.00000041,0.00722311,-0.1
 2676299,0.11955075,-0.00002001,-0.00007933,-0.00003929,0.00012837,0.00
 014293,0.00000182,-0.00086919,0.00044691,-0.00017053,-0.00112147,-0.00
 187743,-0.00036798,-0.01155883,-0.02281478,-0.00908905,-0.00139310,-0.
 00235542,0.00555019,-0.10016565,-0.15049682,0.00053050,0.00604739,0.01
 519205,0.00070020,-0.00070429,0.00120153,0.00393773,-0.00070047,0.0021
 7768,0.00079846,-0.00051769,-0.00000688,-0.00011960,-0.00015763,-0.000
 10473,0.00016694,0.00107702,0.00040671,-0.00001193,0.00003125,-0.00000
 415,-0.00002451,0.00000543,0.00000282,0.00000225,-0.00000678,-0.000010
 83,0.00000468,-0.00001960,0.00000229,-0.00000029,0.00028617,0.00010397
 ,-0.00021923,0.00007282,-0.00001584,-0.00004406,-0.00017496,0.00156850
 ,0.00276864,-0.00020799,-0.00005424,-0.00013211,-0.00046012,-0.0005263
 0,0.00079363,-0.00001770,-0.00000877,0.00004192,-0.00021313,-0.0001118
 8,0.00013131,0.00002403,-0.00007201,0.00003588,0.00005636,0.00013686,0
 .00003145,-0.00003754,0.00026409,0.00010793,0.00000222,0.00000269,-0.0
 0000234,0.11061511,-0.00002561,-0.00006727,-0.00003951,0.00013850,0.00
 010078,-0.00003118,-0.00047797,-0.00027424,0.00062271,0.00094693,-0.00
 147319,-0.00148394,-0.00220511,-0.00515790,0.00220665,0.00052729,0.003
 91492,-0.00123151,-0.15481239,-0.36655975,-0.07297390,-0.00174421,-0.0
 1365024,-0.00473617,0.00061067,0.00196100,-0.00103104,-0.00116747,0.00
 185517,0.00298053,0.00041912,-0.00069688,-0.00027383,-0.00001578,0.000
 64615,0.00041868,-0.00073132,-0.00028776,0.00002352,0.00002520,0.00000
 006,-0.00002609,0.00000292,0.00000127,0.00000020,-0.00000411,-0.000011
 28,0.00000965,-0.00001373,-0.00000038,0.00000279,0.00005325,0.00003066
 ,-0.00007403,0.00020921,0.00002351,-0.00004666,0.00157785,0.00273028,-
 0.00226393,-0.00000474,-0.00002316,0.00019770,-0.00016914,-0.00002228,
 0.00011380,-0.00006211,-0.00000247,0.00005125,-0.00002108,-0.00030954,
 -0.00014882,-0.00002524,0.00002031,-0.00005528,0.00005802,0.00011151,-
 0.00001688,0.00001964,0.00010351,0.00008536,0.00000105,0.00000305,-0.0
 0000069,0.15689038,0.37703413,0.00000742,0.00001610,0.00001384,-0.0000
 1596,-0.00002827,-0.00002639,-0.00050968,0.00011492,-0.00031821,0.0015
 4891,0.00002150,-0.00276480,-0.00091538,0.02098506,0.00847309,0.007738
 35,0.00149041,-0.00042969,0.00466031,-0.07140350,-0.06114592,-0.012877
 93,-0.02492267,-0.00443972,0.00282327,-0.00122608,-0.00332803,-0.00084
 624,-0.00149915,-0.00011231,-0.00036607,0.00017227,-0.00009973,0.00013
 603,0.00007897,-0.00023584,0.00002797,-0.00077329,0.00106130,-0.000001
 96,-0.00000131,0.00000629,-0.00000089,-0.00000047,-0.00000085,0.000002
 63,0.00000470,-0.00000026,-0.00000024,0.00000540,0.00000277,0.00000310
 ,0.00004350,-0.00003452,-0.00014455,-0.00009110,0.00004857,0.00309130,
 -0.00143519,-0.00263862,-0.00013679,0.00011597,-0.00019530,0.00094614,
 0.00080452,-0.00123239,-0.00001070,0.00004819,0.00006231,0.00021854,0.
 00000128,-0.00018404,0.00007604,0.00006862,0.00004404,-0.00000931,-0.0
 0010021,-0.00003331,-0.00006126,-0.00020756,-0.00014856,-0.00000047,-0
 .00000320,0.00000017,-0.00538259,0.07772061,0.06765611\\-0.00000238,-0
 .00000491,0.00000108,0.00000191,-0.00000369,0.00000180,0.00000433,-0.0
 0000771,0.00000251,-0.00000935,0.00000580,-0.00000041,0.00000784,-0.00
 000748,0.00000136,0.00000160,-0.00000120,0.00000223,-0.00000869,0.0000
 0358,-0.00000040,0.00000004,0.00000402,-0.00000561,0.00000334,0.000003
 44,-0.00000441,-0.00000678,0.00000650,0.00000233,-0.00000274,0.0000035
 1,-0.00000552,-0.00000131,0.00000598,0.00000073,0.00000224,0.00000154,
 0.00000085,-0.00000073,-0.00000713,0.00000233,0.00000013,-0.00001016,0
 .00000453,-0.00000444,-0.00000438,0.00000054,-0.00000244,0.,-0.0000002
 8,0.00000363,-0.00000405,-0.00000111,-0.00000092,-0.00000367,0.0000044
 9,-0.00000391,0.00000046,-0.00000272,0.00000530,0.00000101,0.00000303,
 -0.00000607,0.00000574,-0.00000401,-0.00000538,0.00000695,-0.00000431,
 0.00000673,0.00000408,0.00000063,0.00000088,0.00000818,-0.00000392,0.0
 0000896,-0.00000245,0.00000054,0.00000527,0.00000195,0.00000024,0.0000
 0338,-0.00000724,0.00000390,-0.00000044,0.00000133,-0.00000043\\\@


 FORGIVE MY NONSENSE AS I ALSO FORGIVE THOSE WHO THINK THEY TALK SENSE

                                                       -- ROBERT FROST
 Job cpu time:       0 days  2 hours 20 minutes 55.4 seconds.
 File lengths (MBytes):  RWF=    422 Int=      0 D2E=      0 Chk=     18 Scr=      1
 Normal termination of Gaussian 09 at Tue Feb  5 11:51:02 2019.
WARNING: pbs_rusage is deprecated and values produced may not be accurate


=============================================================================
                                     Resource usage:
                                       CPU time:              08:40:08
   JobId:    5387204.r-man2            Elapsed time:          02:11:42
   Project:             q95            Requested time:        32:00:00
   Service Units:      8.78 
                                       Max physical memory:      567MB
                                       Max virtual memory:      1223MB
                                       Requested memory:           0MB

                                       Number of cpus:               4

                                       Max jobfs disk use:       0.4GB
                                       Requested jobfs:         16.0GB
=============================================================================

