 Entering Gaussian System, Link 0=/apps/gaussian/g09e01/g09/g09
 AtFile(1): /home/507/hio507/Basis/6-31pGd.gbs
 Initial command:
 /apps/gaussian/g09e01/g09/l1.exe "/jobfs/local/6018612.r-man2/Gau-3162.inp" -scrdir="/jobfs/local/6018612.r-man2/"
 Entering Link 1 = /apps/gaussian/g09e01/g09/l1.exe PID=      3163.
  
 Copyright (c) 1988,1990,1992,1993,1995,1998,2003,2009,2015,
            Gaussian, Inc.  All Rights Reserved.
  
 This is part of the Gaussian(R) 09 program.  It is based on
 the Gaussian(R) 03 system (copyright 2003, Gaussian, Inc.),
 the Gaussian(R) 98 system (copyright 1998, Gaussian, Inc.),
 the Gaussian(R) 94 system (copyright 1995, Gaussian, Inc.),
 the Gaussian 92(TM) system (copyright 1992, Gaussian, Inc.),
 the Gaussian 90(TM) system (copyright 1990, Gaussian, Inc.),
 the Gaussian 88(TM) system (copyright 1988, Gaussian, Inc.),
 the Gaussian 86(TM) system (copyright 1986, Carnegie Mellon
 University), and the Gaussian 82(TM) system (copyright 1983,
 Carnegie Mellon University). Gaussian is a federally registered
 trademark of Gaussian, Inc.
  
 This software contains proprietary and confidential information,
 including trade secrets, belonging to Gaussian, Inc.
  
 This software is provided under written license and may be
 used, copied, transmitted, or stored only in accord with that
 written license.
  
 The following legend is applicable only to US Government
 contracts under FAR:
  
                    RESTRICTED RIGHTS LEGEND
  
 Use, reproduction and disclosure by the US Government is
 subject to restrictions as set forth in subparagraphs (a)
 and (c) of the Commercial Computer Software - Restricted
 Rights clause in FAR 52.227-19.
  
 Gaussian, Inc.
 340 Quinnipiac St., Bldg. 40, Wallingford CT 06492
  
  
 ---------------------------------------------------------------
 Warning -- This program may not be used in any manner that
 competes with the business of Gaussian, Inc. or will provide
 assistance to any competitor of Gaussian, Inc.  The licensee
 of this program is prohibited from giving any competitor of
 Gaussian, Inc. access to this program.  By using this program,
 the user acknowledges that Gaussian, Inc. is engaged in the
 business of creating and licensing software in the field of
 computational chemistry and represents and warrants to the
 licensee that it is not a competitor of Gaussian, Inc. and that
 it will not use this program in any manner prohibited above.
 ---------------------------------------------------------------
  

 Cite this work as:
 Gaussian 09, Revision E.01,
 M. J. Frisch, G. W. Trucks, H. B. Schlegel, G. E. Scuseria, 
 M. A. Robb, J. R. Cheeseman, G. Scalmani, V. Barone, B. Mennucci, 
 G. A. Petersson, H. Nakatsuji, M. Caricato, X. Li, H. P. Hratchian, 
 A. F. Izmaylov, J. Bloino, G. Zheng, J. L. Sonnenberg, M. Hada, 
 M. Ehara, K. Toyota, R. Fukuda, J. Hasegawa, M. Ishida, T. Nakajima, 
 Y. Honda, O. Kitao, H. Nakai, T. Vreven, J. A. Montgomery, Jr., 
 J. E. Peralta, F. Ogliaro, M. Bearpark, J. J. Heyd, E. Brothers, 
 K. N. Kudin, V. N. Staroverov, T. Keith, R. Kobayashi, J. Normand, 
 K. Raghavachari, A. Rendell, J. C. Burant, S. S. Iyengar, J. Tomasi, 
 M. Cossi, N. Rega, J. M. Millam, M. Klene, J. E. Knox, J. B. Cross, 
 V. Bakken, C. Adamo, J. Jaramillo, R. Gomperts, R. E. Stratmann, 
 O. Yazyev, A. J. Austin, R. Cammi, C. Pomelli, J. W. Ochterski, 
 R. L. Martin, K. Morokuma, V. G. Zakrzewski, G. A. Voth, 
 P. Salvador, J. J. Dannenberg, S. Dapprich, A. D. Daniels, 
 O. Farkas, J. B. Foresman, J. V. Ortiz, J. Cioslowski, 
 and D. J. Fox, Gaussian, Inc., Wallingford CT, 2013.
 
 ******************************************
 Gaussian 09:  ES64L-G09RevE.01 30-Nov-2015
                22-Feb-2019 
 ******************************************
 %chk=3Nitro_EtO.M062X_6-31pGd_bsse.chk
 %mem=196608000
 %nproc=4
 Will use up to    4 processors via shared memory.
 ----------------------------------------------------------------------
 # M062X/Gen 6D SCF=Tight INT(grid=ultrafine) Counterpoise=2 maxdisk=67
 1088640
 ----------------------------------------------------------------------
 1/38=1,62=2/1;
 2/12=2,17=6,18=5,40=1/2;
 1/38=1,53=2,62=2,63=1/22;
 3/5=7,8=2,11=2,16=1,25=1,30=1,74=-55,75=-5/1,2,3;
 4//1;
 5/5=2,32=2,38=5/2;
 6/7=2,8=2,9=2,10=2,28=1/1;
 1/53=2,62=2,63=1/22;
 3/5=7,6=11,8=2,11=2,16=1,25=1,30=1,74=-55,75=-5,82=7/1,2,3;
 4//1;
 5/5=2,32=2,38=5/2;
 6/7=2,8=2,9=2,10=2,28=1/1;
 1/53=2,62=2,63=1/22(-4);
 99/5=1,9=1/99;
 -----------------------------
 3Nitro_EtO.M062X_6-31pGd_bsse
 -----------------------------
 Symbolic Z-matrix:
 Charge = -1 Multiplicity = 1 in supermolecule
 Charge =  0 Multiplicity = 1 in fragment      1.
 Charge = -1 Multiplicity = 1 in fragment      2.
 C(Fragment=1)         11.8422  -0.00931  -7.40687 
 C(Fragment=1)         10.86688  -0.23186  -6.25319 
 C(Fragment=1)         10.48962   1.07987  -5.57206 
 N(Fragment=1)         9.52004   0.83502  -4.5297 
 C(Fragment=1)         9.29431   1.76218  -3.56574 
 O(Fragment=1)         9.94386   2.80439  -3.45549 
 N(Fragment=1)         8.26122   1.40174  -2.71207 
 C(Fragment=1)         7.78804   2.11131  -1.62858 
 C(Fragment=1)         8.30611   3.3424   -1.18716 
 C(Fragment=1)         6.70529   1.5391   -0.92423 
 C(Fragment=1)         6.15738   2.17297   0.18192 
 C(Fragment=1)         6.65641   3.39355   0.63433 
 C(Fragment=1)         7.72138   3.93606  -0.0743 
 H(Fragment=1)         12.11978  -0.95486  -7.8843 
 H(Fragment=1)         12.76258   0.47398  -7.05761 
 H(Fragment=1)         11.30718  -0.90218  -5.50505 
 H(Fragment=1)         9.95606  -0.72721  -6.61056 
 H(Fragment=1)         10.09407   1.78663  -6.3205 
 H(Fragment=1)         11.37147   1.55569  -5.12792 
 H(Fragment=1)         8.87486   0.03416  -4.64656 
 H(Fragment=1)         9.13414   3.80872  -1.70227 
 H(Fragment=1)         6.3136    0.58717  -1.27637 
 H(Fragment=1)         5.32503   1.70777   0.70245 
 N(Fragment=1)         8.26636   5.22614   0.38674 
 H(Fragment=1)         6.24721   3.90835   1.49385 
 O(Fragment=1)         9.20407   5.7106   -0.22163 
 O(Fragment=1)         7.74738   5.75032   1.36392 
 H(Fragment=1)         11.40088   0.63625  -8.17536 
 H(Fragment=1)         7.7653    0.50444  -2.90175 
 O(Fragment=2)         6.77685  -0.91643  -3.03558 
 O(Fragment=2)         7.82745  -1.39356  -4.96257 
 C(Fragment=2)         6.97527  -1.61586  -4.0682 
 C(Fragment=2)         6.07462  -2.85268  -4.2206 
 C(Fragment=2)         6.34109  -3.67169  -5.4774 
 H(Fragment=2)         5.03607  -2.50024  -4.19143 
 H(Fragment=2)         6.20759  -3.46069  -3.3171 
 H(Fragment=2)         6.19916  -3.06009  -6.37313 
 H(Fragment=2)         5.67286  -4.53976  -5.53569 
 H(Fragment=2)         7.37615  -4.02506  -5.4948 
 
                          Input orientation:                          
 ---------------------------------------------------------------------
 Center     Atomic      Atomic             Coordinates (Angstroms)
 Number     Number       Type             X           Y           Z
 ---------------------------------------------------------------------
      1          6           0       11.842200   -0.009314   -7.406871
      2          6           0       10.866876   -0.231858   -6.253194
      3          6           0       10.489616    1.079875   -5.572059
      4          7           0        9.520037    0.835019   -4.529697
      5          6           0        9.294310    1.762178   -3.565744
      6          8           0        9.943856    2.804394   -3.455494
      7          7           0        8.261219    1.401735   -2.712067
      8          6           0        7.788036    2.111310   -1.628585
      9          6           0        8.306110    3.342398   -1.187160
     10          6           0        6.705293    1.539097   -0.924234
     11          6           0        6.157385    2.172966    0.181923
     12          6           0        6.656414    3.393546    0.634331
     13          6           0        7.721375    3.936059   -0.074301
     14          1           0       12.119780   -0.954865   -7.884305
     15          1           0       12.762579    0.473980   -7.057614
     16          1           0       11.307185   -0.902176   -5.505049
     17          1           0        9.956055   -0.727206   -6.610562
     18          1           0       10.094071    1.786632   -6.320504
     19          1           0       11.371474    1.555686   -5.127919
     20          1           0        8.874860    0.034161   -4.646564
     21          1           0        9.134142    3.808717   -1.702274
     22          1           0        6.313604    0.587170   -1.276373
     23          1           0        5.325031    1.707771    0.702450
     24          7           0        8.266363    5.226144    0.386743
     25          1           0        6.247209    3.908349    1.493847
     26          8           0        9.204066    5.710599   -0.221634
     27          8           0        7.747377    5.750324    1.363925
     28          1           0       11.400877    0.636253   -8.175360
     29          1           0        7.765304    0.504441   -2.901746
     30          8           0        6.776848   -0.916429   -3.035576
     31          8           0        7.827447   -1.393563   -4.962568
     32          6           0        6.975275   -1.615863   -4.068198
     33          6           0        6.074616   -2.852678   -4.220597
     34          6           0        6.341090   -3.671693   -5.477404
     35          1           0        5.036070   -2.500237   -4.191425
     36          1           0        6.207594   -3.460687   -3.317104
     37          1           0        6.199157   -3.060085   -6.373127
     38          1           0        5.672857   -4.539762   -5.535693
     39          1           0        7.376152   -4.025058   -5.494798
 ---------------------------------------------------------------------
                    Distance matrix (angstroms):
                    1          2          3          4          5
     1  C    0.000000
     2  C    1.527008   0.000000
     3  C    2.526331   1.525422   0.000000
     4  N    3.792555   2.433648   1.444492   0.000000
     5  C    4.938034   3.697502   2.433021   1.356385   0.000000
     6  O    5.209034   4.230593   2.784182   2.282975   1.232996
     7  N    6.070887   4.690165   3.639904   2.282448   1.387790
     8  C    7.370339   6.029652   4.890132   3.611814   2.478577
     9  C    7.900805   6.708020   5.395744   4.351221   3.021804
    10  C    8.414866   6.989482   6.011178   4.627945   3.705449
    11  C    9.729813   8.329058   7.285011   5.941119   4.904494
    12  C   10.155430   8.849267   7.652829   6.435338   5.221158
    13  C    9.290519   8.089773   6.785742   5.718583   4.403415
    14  H    1.095016   2.180145   3.484836   4.606055   5.832287
    15  H    1.096654   2.176923   2.782148   4.127324   5.087386
    16  H    2.168034   1.096777   2.145096   2.676389   3.861521
    17  H    2.169567   1.096666   2.151445   2.638306   3.988214
    18  H    2.731587   2.162420   1.102783   2.107623   2.868608
    19  H    2.804359   2.171676   1.096052   2.074862   2.607228
    20  H    4.052937   2.572966   2.134829   1.035028   2.080901
    21  H    7.379252   6.327676   4.925355   4.121421   2.772453
    22  H    8.276725   6.794986   6.011219   4.574577   3.937826
    23  H   10.544333   9.102482   8.150868   6.762775   5.828861
    24  N   10.046743   8.980045   7.592215   6.710072   5.355175
    25  H   11.219394   9.924680   8.713514   7.512646   6.284135
    26  O    9.555353   8.628872   7.191891   6.513872   5.175060
    27  O   11.263563  10.175375   8.800048   7.876377   6.526864
    28  H    1.096403   2.175661   2.793631   4.107059   5.191714
    29  H    6.097637   4.625374   3.857923   2.416318   2.088218
    30  O    6.751953   5.248812   4.919717   3.581208   3.713977
    31  O    4.899899   3.500486   3.684632   2.831751   3.749867
    32  C    6.116756   4.672712   4.677521   3.563091   4.128141
    33  C    7.176496   5.828027   6.064952   5.056241   5.664994
    34  C    6.884626   5.737338   6.308456   5.595918   6.473245
    35  H    7.928883   6.587467   6.668171   5.598599   6.057414
    36  H    7.770905   6.383954   6.636056   5.558394   6.071899
    37  H    6.497674   5.459016   6.015731   5.440433   6.380877
    38  H    7.879534   6.786064   7.401541   6.685887   7.530609
    39  H    6.303000   5.210440   5.979964   5.398889   6.394738
                    6          7          8          9         10
     6  O    0.000000
     7  N    2.313309   0.000000
     8  C    2.909557   1.378889   0.000000
     9  C    2.849035   2.468508   1.406710   0.000000
    10  C    4.300761   2.374052   1.412753   2.425622   0.000000
    11  C    5.288371   3.660068   2.437368   2.803387   1.387652
    12  C    5.280250   4.212017   2.836456   2.458036   2.422910
    13  C    4.201494   3.697572   2.397905   1.390253   2.738656
    14  H    6.203309   6.869796   8.203626   8.823962   9.164012
    15  H    5.133352   6.325089   7.543295   7.908867   8.685825
    16  H    4.449494   4.731454   6.040901   6.757738   6.936936
    17  H    4.735694   4.754274   6.130056   6.978345   6.930939
    18  H    3.044123   4.065502   5.238065   5.654064   6.376898
    19  H    2.528709   3.941285   5.039354   5.302677   6.280485
    20  H    3.199311   2.447262   3.821509   4.820310   4.563726
    21  H    2.176713   2.752315   2.167630   1.080941   3.414064
    22  H    4.779475   2.553026   2.149653   3.401371   1.087928
    23  H    6.310675   4.513733   3.415107   3.889661   2.140017
    24  N    4.841657   4.922271   3.740659   2.455045   4.213065
    25  H    6.275340   5.294248   3.918300   3.427415   3.416184
    26  O    4.410347   5.065325   4.115766   2.710524   4.913140
    27  O    6.060513   5.982304   4.711601   3.552227   4.904696
    28  H    5.394524   6.347518   7.621594   8.107759   8.685763
    29  H    3.215977   1.042615   2.050240   3.359505   2.470767
    30  O    4.904160   2.771624   3.488456   4.888035   3.239211
    31  O    4.936932   3.614776   4.837472   6.075537   5.115454
    32  C    5.359716   3.549457   4.528147   5.886923   4.462194
    33  C    6.896293   5.015668   5.856237   7.249846   5.527336
    34  C    7.681650   6.088814   7.095787   8.453696   6.929382
    35  H    7.264094   5.274037   5.950448   7.338607   5.456836
    36  H    7.295892   5.312871   6.032914   7.431178   5.565193
    37  H    7.545030   6.128891   7.195731   8.504428   7.148363
    38  H    8.746730   7.069220   7.998515   9.379351   7.699611
    39  H    7.575835   6.162550   7.264452   8.584869   7.231869
                   11         12         13         14         15
    11  C    0.000000
    12  C    1.394101   0.000000
    13  C    2.370699   1.389468   0.000000
    14  H   10.507023  11.014726  10.210939   0.000000
    15  H    9.946158  10.245738   9.282586   1.771498   0.000000
    16  H    8.265506   8.819006   8.109228   2.514746   2.534254
    17  H    8.305345   8.964190   8.334419   2.521102   3.085333
    18  H    7.611065   7.922713   7.018887   3.750304   3.063874
    19  H    7.467408   7.668966   6.672964   3.802695   2.613233
    20  H    5.939145   6.640392   6.120533   4.689419   4.595756
    21  H    3.884194   3.430922   2.159265   8.356031   7.277753
    22  H    2.160043   3.412339   3.826468   8.930527   8.661689
    23  H    1.086355   2.149199   3.363194  11.269010  10.819332
    24  N    3.716401   2.451867   1.474413  11.021067   9.910473
    25  H    2.177330   1.082239   2.152446  12.086674  11.285940
    26  O    4.686147   3.548513   2.317126  10.566282   9.317500
    27  O    4.089338   2.697575   2.315324  12.231403  11.131683
    28  H    9.984983  10.378981   9.489711   1.770083   1.769158
    29  H    3.857252   4.698978   4.446614   6.776204   6.499610
    30  O    4.503376   5.662031   5.762631   7.215163   7.344318
    31  O    6.478814   7.457412   7.232653   5.210866   5.677365
    32  C    5.752191   6.878199   6.879805   6.439374   6.840830
    33  C    6.681776   7.932472   8.123456   7.319048   7.990255
    34  C    8.137676   9.347209   9.432741   6.824045   7.805075
    35  H    6.497873   7.787818   8.098610   8.136614   8.761276
    36  H    6.632025   7.924379   8.217004   7.879874   8.511220
    37  H    8.387804   9.537447   9.536162   6.462925   7.485764
    38  H    8.831004  10.098215  10.288964   7.741465   8.815782
    39  H    8.492706   9.649866   9.637445   6.134969   7.190087
                   16         17         18         19         20
    16  H    0.000000
    17  H    1.754516   0.000000
    18  H    3.060441   2.534277   0.000000
    19  H    2.487458   3.068100   1.762768   0.000000
    20  H    2.744072   2.367690   2.712878   2.963077   0.000000
    21  H    6.432396   6.733604   5.132089   4.670850   4.794094
    22  H    6.710864   6.591556   6.416689   6.430745   4.268962
    23  H    9.007276   8.991976   8.489513   8.400940   6.634319
    24  N    9.028627   9.341291   7.756154   7.316110   7.256799
    25  H    9.885801  10.046162   8.964604   8.697178   7.721303
    26  O    8.721604   9.101056   7.306561   6.784732   7.204882
    27  O   10.203469  10.508525   8.959256   8.536574   8.370884
    28  H    3.083198   2.528858   2.543935   3.183256   4.381288
    29  H    4.615266   4.480141   4.330713   4.366397   2.120535
    30  O    5.159694   4.787869   5.394558   5.621373   2.810793
    31  O    3.555886   2.773245   4.134636   4.613625   1.798702
    32  C    4.619452   4.017261   5.135830   5.523432   2.581765
    33  C    5.730100   5.029427   6.487590   6.950799   4.044336
    34  C    5.686219   4.798128   6.677499   7.263085   4.565484
    35  H    6.603505   5.762128   6.963734   7.580559   4.622405
    36  H    6.110557   5.689442   7.187453   7.423524   4.593009
    37  H    5.612671   4.428655   6.218022   7.043348   4.440132
    38  H    6.706610   5.834099   7.757985   8.354340   5.653684
    39  H    5.020509   4.333205   6.468742   6.873275   4.409409
                   21         22         23         24         25
    21  H    0.000000
    22  H    4.302929   0.000000
    23  H    4.970513   2.479670   0.000000
    24  N    2.669482   5.300878   4.596744   0.000000
    25  H    4.308074   4.325363   2.513815   2.653158   0.000000
    26  O    2.411294   5.976352   5.650086   1.218239   3.864452
    27  O    3.885168   5.973696   4.758943   1.224334   2.379129
    28  H    7.556683   8.571977  10.811085  10.207933  11.435055
    29  H    3.772358   2.180852   4.515878   5.775785   5.763024
    30  O    5.446240   2.360126   4.792393   7.187636   6.638876
    31  O    6.276996   4.450062   6.926238   8.522224   8.502513
    32  C    6.299553   3.617381   6.043916   8.265983   7.872950
    33  C    7.750924   4.534106   6.752477   9.555035   8.854159
    34  C    8.832286   5.982251   8.256004  10.828961  10.298747
    35  H    7.924201   4.434151   6.460715   9.544180   8.652118
    36  H    8.001037   4.534420   6.606715   9.665301   8.800540
    37  H    8.809736   6.268370   8.576732  10.891776  10.509551
    38  H    9.816960   6.696103   8.835558  11.712150  11.005222
    39  H    8.879290   6.340091   8.687825  10.998624  10.632715
                   26         27         28         29         30
    26  O    0.000000
    27  O    2.153490   0.000000
    28  H    9.686936  11.423648   0.000000
    29  H    6.029686   6.761327   6.406698   0.000000
    30  O    7.597838   8.046311   7.085891   1.736037   0.000000
    31  O    8.651049   9.542853   5.216473   2.802368   2.246044
    32  C    8.569750   9.185032   6.444127   2.545672   1.262890
    33  C    9.955645  10.392143   7.495456   3.983471   2.376229
    34  C   11.128663  11.728419   7.172086   5.109060   3.707275
    35  H   10.027425  10.309454   8.137572   4.259117   2.621973
    36  H   10.132782  10.446324   8.207178   4.280330   2.622320
    37  H   11.126331  11.827183   6.630902   5.216239   4.008521
    38  H   12.073879  12.561617   8.158994   6.063003   4.538494
    39  H   11.221878  11.947300   6.716521   5.233710   4.008805
                   31         32         33         34         35
    31  O    0.000000
    32  C    1.255195   0.000000
    33  C    2.398323   1.537570   0.000000
    34  C    2.768427   2.571864   1.523601   0.000000
    35  H    3.100189   2.134904   1.097106   2.174656   0.000000
    36  H    3.099110   2.134678   1.097114   2.174682   1.749106
    37  H    2.723656   2.828575   2.166083   1.093860   2.534960
    38  H    3.856073   3.521224   2.176498   1.097031   2.524326
    39  H    2.722444   2.828446   2.166116   1.093857   3.082181
                   36         37         38         39
    36  H    0.000000
    37  H    3.082180   0.000000
    38  H    2.524379   1.779812   0.000000
    39  H    2.535033   1.757257   1.779833   0.000000
 Stoichiometry    C13H18N3O5(1-)
 Framework group  C1[X(C13H18N3O5)]
 Deg. of freedom   111
 Full point group                 C1      NOp   1
 Largest Abelian subgroup         C1      NOp   1
 Largest concise Abelian subgroup C1      NOp   1
                         Standard orientation:                         
 ---------------------------------------------------------------------
 Center     Atomic      Atomic             Coordinates (Angstroms)
 Number     Number       Type             X           Y           Z
 ---------------------------------------------------------------------
      1          6           0       -4.470167    3.909562   -0.092967
      2          6           0       -3.729204    2.593009   -0.315264
      3          6           0       -2.287053    2.667041    0.176297
      4          7           0       -1.640206    1.386687    0.006475
      5          6           0       -0.287788    1.287528    0.036735
      6          8           0        0.466473    2.259936    0.112837
      7          7           0        0.151358   -0.026723   -0.039776
      8          6           0        1.456538   -0.471494   -0.043959
      9          6           0        2.588609    0.361873    0.008458
     10          6           0        1.645921   -1.869986   -0.108946
     11          6           0        2.920370   -2.418823   -0.120549
     12          6           0        4.054476   -1.609733   -0.068651
     13          6           0        3.842733   -0.237942   -0.005585
     14          1           0       -5.500800    3.855483   -0.458935
     15          1           0       -3.971294    4.735741   -0.613741
     16          1           0       -3.724207    2.333022   -1.380769
     17          1           0       -4.243205    1.771666    0.198422
     18          1           0       -2.270686    2.980020    1.233608
     19          1           0       -1.723544    3.423064   -0.382467
     20          1           0       -2.228304    0.536412    0.056031
     21          1           0        2.480587    1.436230    0.058681
     22          1           0        0.762156   -2.503230   -0.148326
     23          1           0        3.033381   -3.498112   -0.170853
     24          7           0        5.027786    0.637594    0.049008
     25          1           0        5.058977   -2.012423   -0.076226
     26          8           0        4.857025    1.842787    0.098587
     27          8           0        6.131593    0.107927    0.041529
     28          1           0       -4.506833    4.164586    0.972734
     29          1           0       -0.570245   -0.777840   -0.086265
     30          8           0       -1.577210   -2.191067   -0.137598
     31          8           0       -3.361733   -0.857266    0.147301
     32          6           0       -2.813450   -1.977702    0.007581
     33          6           0       -3.711211   -3.225959    0.009054
     34          6           0       -5.195336   -2.931030    0.187230
     35          1           0       -3.341708   -3.887345    0.802577
     36          1           0       -3.524186   -3.757761   -0.932151
     37          1           0       -5.373527   -2.407525    1.131010
     38          1           0       -5.787999   -3.854168    0.180659
     39          1           0       -5.556936   -2.277324   -0.611792
 ---------------------------------------------------------------------
 Rotational constants (GHZ):      0.4118495      0.1426191      0.1064742
 Counterpoise: doing full dimer calculation.
 General basis read from cards:  (6D, 7F)
 There are   435 symmetry adapted cartesian basis functions of A   symmetry.
 There are   435 symmetry adapted basis functions of A   symmetry.
   435 basis functions,   744 primitive gaussians,   435 cartesian basis functions
    79 alpha electrons       79 beta electrons
       nuclear repulsion energy      1638.6859261226 Hartrees.
 NAtoms=   39 NActive=   39 NUniq=   39 SFac= 1.00D+00 NAtFMM=   60 NAOKFM=F Big=F
 Integral buffers will be    131072 words long.
 Raffenetti 2 integral format.
 Two-electron integral symmetry is turned on.
 One-electron integrals computed using PRISM.
 NBasis=   435 RedAO= T EigKep=  1.10D-06  NBF=   435
 NBsUse=   434 1.00D-06 EigRej=  8.25D-07 NBFU=   434
 ExpMin= 4.38D-02 ExpMax= 5.48D+03 ExpMxC= 8.25D+02 IAcc=3 IRadAn=         5 AccDes= 0.00D+00
 Harris functional with IExCor= 1009 and IRadAn=       5 diagonalized for initial guess.
 HarFok:  IExCor= 1009 AccDes= 0.00D+00 IRadAn=         5 IDoV= 1 UseB2=F ITyADJ=14
 ICtDFT=  3500011 ScaDFX=  1.000000  1.000000  1.000000  1.000000
 FoFCou: FMM=F IPFlag=           0 FMFlag=      100000 FMFlg1=           0
         NFxFlg=           0 DoJE=T BraDBF=F KetDBF=T FulRan=T
         wScrn=  0.000000 ICntrl=     500 IOpCl=  0 I1Cent=   200000004 NGrid=           0
         NMat0=    1 NMatS0=      1 NMatT0=    0 NMatD0=    1 NMtDS0=    0 NMtDT0=    0
 Petite list used in FoFCou.
 Requested convergence on RMS density matrix=1.00D-08 within 128 cycles.
 Requested convergence on MAX density matrix=1.00D-06.
 Requested convergence on             energy=1.00D-06.
 No special actions if energy rises.
 SCF Done:  E(RM062X) =  -1046.25350690     A.U. after   16 cycles
            NFock= 16  Conv=0.46D-08     -V/T= 2.0085

 **********************************************************************

            Population analysis using the SCF density.

 **********************************************************************

 Orbital symmetries:
       Occupied  (A) (A) (A) (A) (A) (A) (A) (A) (A) (A) (A) (A)
                 (A) (A) (A) (A) (A) (A) (A) (A) (A) (A) (A) (A)
                 (A) (A) (A) (A) (A) (A) (A) (A) (A) (A) (A) (A)
                 (A) (A) (A) (A) (A) (A) (A) (A) (A) (A) (A) (A)
                 (A) (A) (A) (A) (A) (A) (A) (A) (A) (A) (A) (A)
                 (A) (A) (A) (A) (A) (A) (A) (A) (A) (A) (A) (A)
                 (A) (A) (A) (A) (A) (A) (A)
       Virtual   (A) (A) (A) (A) (A) (A) (A) (A) (A) (A) (A) (A)
                 (A) (A) (A) (A) (A) (A) (A) (A) (A) (A) (A) (A)
                 (A) (A) (A) (A) (A) (A) (A) (A) (A) (A) (A) (A)
                 (A) (A) (A) (A) (A) (A) (A) (A) (A) (A) (A) (A)
                 (A) (A) (A) (A) (A) (A) (A) (A) (A) (A) (A) (A)
                 (A) (A) (A) (A) (A) (A) (A) (A) (A) (A) (A) (A)
                 (A) (A) (A) (A) (A) (A) (A) (A) (A) (A) (A) (A)
                 (A) (A) (A) (A) (A) (A) (A) (A) (A) (A) (A) (A)
                 (A) (A) (A) (A) (A) (A) (A) (A) (A) (A) (A) (A)
                 (A) (A) (A) (A) (A) (A) (A) (A) (A) (A) (A) (A)
                 (A) (A) (A) (A) (A) (A) (A) (A) (A) (A) (A) (A)
                 (A) (A) (A) (A) (A) (A) (A) (A) (A) (A) (A) (A)
                 (A) (A) (A) (A) (A) (A) (A) (A) (A) (A) (A) (A)
                 (A) (A) (A) (A) (A) (A) (A) (A) (A) (A) (A) (A)
                 (A) (A) (A) (A) (A) (A) (A) (A) (A) (A) (A) (A)
                 (A) (A) (A) (A) (A) (A) (A) (A) (A) (A) (A) (A)
                 (A) (A) (A) (A) (A) (A) (A) (A) (A) (A) (A) (A)
                 (A) (A) (A) (A) (A) (A) (A) (A) (A) (A) (A) (A)
                 (A) (A) (A) (A) (A) (A) (A) (A) (A) (A) (A) (A)
                 (A) (A) (A) (A) (A) (A) (A) (A) (A) (A) (A) (A)
                 (A) (A) (A) (A) (A) (A) (A) (A) (A) (A) (A) (A)
                 (A) (A) (A) (A) (A) (A) (A) (A) (A) (A) (A) (A)
                 (A) (A) (A) (A) (A) (A) (A) (A) (A) (A) (A) (A)
                 (A) (A) (A) (A) (A) (A) (A) (A) (A) (A) (A) (A)
                 (A) (A) (A) (A) (A) (A) (A) (A) (A) (A) (A) (A)
                 (A) (A) (A) (A) (A) (A) (A) (A) (A) (A) (A) (A)
                 (A) (A) (A) (A) (A) (A) (A) (A) (A) (A) (A) (A)
                 (A) (A) (A) (A) (A) (A) (A) (A) (A) (A) (A) (A)
                 (A) (A) (A) (A) (A) (A) (A) (A) (A) (A) (A) (A)
                 (A) (A) (A) (A) (A) (A) (A)
 The electronic state is 1-A.
 Alpha  occ. eigenvalues --  -19.58905 -19.58728 -19.48915 -19.47145 -19.46897
 Alpha  occ. eigenvalues --  -14.91881 -14.66549 -14.64815 -10.55917 -10.51929
 Alpha  occ. eigenvalues --  -10.51278 -10.50691 -10.47111 -10.47040 -10.46966
 Alpha  occ. eigenvalues --  -10.46066 -10.45952 -10.45391 -10.44631 -10.43151
 Alpha  occ. eigenvalues --  -10.43096  -1.27358  -1.08600  -1.05095  -1.03350
 Alpha  occ. eigenvalues --   -0.93969  -0.93438  -0.90662  -0.87624  -0.79926
 Alpha  occ. eigenvalues --   -0.78327  -0.75193  -0.74785  -0.69333  -0.67709
 Alpha  occ. eigenvalues --   -0.61804  -0.61513  -0.58693  -0.57769  -0.55910
 Alpha  occ. eigenvalues --   -0.53866  -0.52915  -0.51425  -0.50087  -0.47926
 Alpha  occ. eigenvalues --   -0.46810  -0.45873  -0.44774  -0.42350  -0.42200
 Alpha  occ. eigenvalues --   -0.41706  -0.41017  -0.40840  -0.40707  -0.39120
 Alpha  occ. eigenvalues --   -0.37540  -0.37218  -0.36083  -0.34663  -0.34497
 Alpha  occ. eigenvalues --   -0.34242  -0.33766  -0.32894  -0.32671  -0.31096
 Alpha  occ. eigenvalues --   -0.30684  -0.29770  -0.29416  -0.28977  -0.28645
 Alpha  occ. eigenvalues --   -0.28364  -0.27202  -0.22638  -0.22528  -0.20086
 Alpha  occ. eigenvalues --   -0.19629  -0.19305  -0.19162  -0.15711
 Alpha virt. eigenvalues --    0.04475   0.10186   0.10311   0.11072   0.11629
 Alpha virt. eigenvalues --    0.12013   0.12383   0.12573   0.13168   0.13658
 Alpha virt. eigenvalues --    0.13915   0.14139   0.14879   0.15366   0.15568
 Alpha virt. eigenvalues --    0.15787   0.16742   0.16947   0.17041   0.17331
 Alpha virt. eigenvalues --    0.17798   0.18134   0.18848   0.19327   0.19450
 Alpha virt. eigenvalues --    0.20025   0.20234   0.20671   0.20765   0.21987
 Alpha virt. eigenvalues --    0.22169   0.22449   0.22636   0.23351   0.23724
 Alpha virt. eigenvalues --    0.24174   0.24623   0.25379   0.25463   0.26069
 Alpha virt. eigenvalues --    0.26209   0.26795   0.27144   0.27873   0.28103
 Alpha virt. eigenvalues --    0.28657   0.29021   0.29292   0.29954   0.30551
 Alpha virt. eigenvalues --    0.30768   0.31130   0.31860   0.32342   0.32424
 Alpha virt. eigenvalues --    0.32733   0.33225   0.33659   0.33938   0.34338
 Alpha virt. eigenvalues --    0.34481   0.34873   0.35251   0.35417   0.35593
 Alpha virt. eigenvalues --    0.36074   0.36336   0.36713   0.37140   0.37681
 Alpha virt. eigenvalues --    0.38013   0.38581   0.38949   0.39243   0.39779
 Alpha virt. eigenvalues --    0.39936   0.40116   0.40689   0.40940   0.41000
 Alpha virt. eigenvalues --    0.41426   0.42014   0.42166   0.42510   0.43080
 Alpha virt. eigenvalues --    0.43199   0.43605   0.43819   0.44605   0.44741
 Alpha virt. eigenvalues --    0.45565   0.45920   0.46284   0.46528   0.46714
 Alpha virt. eigenvalues --    0.46990   0.47404   0.47859   0.48522   0.49506
 Alpha virt. eigenvalues --    0.49734   0.49936   0.50734   0.51227   0.51839
 Alpha virt. eigenvalues --    0.52384   0.53035   0.53697   0.54622   0.55955
 Alpha virt. eigenvalues --    0.56599   0.57785   0.58154   0.59708   0.60647
 Alpha virt. eigenvalues --    0.61551   0.63213   0.63639   0.64039   0.66003
 Alpha virt. eigenvalues --    0.66805   0.67172   0.70179   0.71059   0.72949
 Alpha virt. eigenvalues --    0.73980   0.77705   0.79376   0.79751   0.80256
 Alpha virt. eigenvalues --    0.80628   0.83513   0.83772   0.84709   0.85730
 Alpha virt. eigenvalues --    0.86252   0.86612   0.86992   0.87177   0.88447
 Alpha virt. eigenvalues --    0.88719   0.89531   0.89788   0.90217   0.92285
 Alpha virt. eigenvalues --    0.92561   0.92683   0.94675   0.96879   0.97455
 Alpha virt. eigenvalues --    0.97787   0.98500   0.99186   1.00140   1.01719
 Alpha virt. eigenvalues --    1.02921   1.05116   1.05282   1.07572   1.08046
 Alpha virt. eigenvalues --    1.08198   1.09936   1.10387   1.11044   1.12683
 Alpha virt. eigenvalues --    1.13495   1.14907   1.15396   1.16285   1.16499
 Alpha virt. eigenvalues --    1.17508   1.17940   1.18775   1.19856   1.20727
 Alpha virt. eigenvalues --    1.22900   1.24199   1.25240   1.26420   1.27252
 Alpha virt. eigenvalues --    1.27715   1.27830   1.28676   1.29502   1.30668
 Alpha virt. eigenvalues --    1.31075   1.33401   1.34357   1.35010   1.35259
 Alpha virt. eigenvalues --    1.36630   1.36844   1.38000   1.38665   1.40500
 Alpha virt. eigenvalues --    1.43016   1.43582   1.45285   1.45767   1.46671
 Alpha virt. eigenvalues --    1.46896   1.47249   1.48142   1.48510   1.49450
 Alpha virt. eigenvalues --    1.50422   1.50938   1.52263   1.52797   1.53318
 Alpha virt. eigenvalues --    1.53439   1.55069   1.55672   1.56030   1.56927
 Alpha virt. eigenvalues --    1.57103   1.59566   1.60729   1.61024   1.61436
 Alpha virt. eigenvalues --    1.62061   1.62191   1.62754   1.63575   1.66129
 Alpha virt. eigenvalues --    1.66758   1.68285   1.69484   1.70410   1.71232
 Alpha virt. eigenvalues --    1.72603   1.76012   1.77437   1.79053   1.82799
 Alpha virt. eigenvalues --    1.85786   1.85997   1.90072   1.91668   1.92271
 Alpha virt. eigenvalues --    1.93876   1.95329   1.95521   1.96381   1.97763
 Alpha virt. eigenvalues --    1.98918   1.99345   1.99891   2.03136   2.03449
 Alpha virt. eigenvalues --    2.03717   2.05171   2.06718   2.07044   2.07825
 Alpha virt. eigenvalues --    2.07981   2.08346   2.08606   2.09183   2.09355
 Alpha virt. eigenvalues --    2.10848   2.12405   2.13179   2.14029   2.15974
 Alpha virt. eigenvalues --    2.16677   2.17957   2.18854   2.19707   2.21150
 Alpha virt. eigenvalues --    2.21681   2.22802   2.24195   2.25288   2.26133
 Alpha virt. eigenvalues --    2.29067   2.29845   2.30124   2.31306   2.34206
 Alpha virt. eigenvalues --    2.34409   2.35778   2.36976   2.38534   2.39294
 Alpha virt. eigenvalues --    2.40613   2.42286   2.42422   2.43059   2.46845
 Alpha virt. eigenvalues --    2.49246   2.49397   2.50504   2.51164   2.52654
 Alpha virt. eigenvalues --    2.55426   2.58884   2.59428   2.61850   2.65385
 Alpha virt. eigenvalues --    2.65636   2.66993   2.67704   2.69149   2.72831
 Alpha virt. eigenvalues --    2.73630   2.75691   2.76695   2.78041   2.80116
 Alpha virt. eigenvalues --    2.82848   2.84586   2.85271   2.89262   2.89917
 Alpha virt. eigenvalues --    2.92020   2.92624   2.94642   2.97731   3.01789
 Alpha virt. eigenvalues --    3.06577   3.09000   3.11465   3.16447   3.21031
 Alpha virt. eigenvalues --    3.23341   3.25781   3.27232   3.27644   3.31357
 Alpha virt. eigenvalues --    3.35521   3.42640   3.48540   3.57293   4.24724
 Alpha virt. eigenvalues --    4.35100   4.37039   4.38623   4.40405   4.44724
 Alpha virt. eigenvalues --    4.50717   4.53034   4.55564   4.57214   4.59056
 Alpha virt. eigenvalues --    4.61473   4.62465   4.64169   4.70030   4.73087
 Alpha virt. eigenvalues --    4.82068   4.83971   4.88585   4.90633   5.00573
          Condensed to atoms (all electrons):
               1          2          3          4          5          6
     1  C    5.827607  -0.227168   0.068293  -0.017617  -0.064525  -0.001358
     2  C   -0.227168   6.380488  -0.401525  -0.035335   0.128461   0.007215
     3  C    0.068293  -0.401525   6.857993   0.353761  -0.767862  -0.076684
     4  N   -0.017617  -0.035335   0.353761   7.792060   0.390704  -0.172875
     5  C   -0.064525   0.128461  -0.767862   0.390704   6.665310   0.726760
     6  O   -0.001358   0.007215  -0.076684  -0.172875   0.726760   8.340272
     7  N   -0.001431   0.010929  -0.169636  -0.363161   0.083702  -0.072779
     8  C   -0.007626   0.000405  -0.546369  -0.331485  -1.583830  -0.317328
     9  C    0.007017  -0.021959   0.308348   0.297381   1.136470   0.315579
    10  C   -0.005136   0.010435  -0.237361  -0.194994  -1.371702  -0.102089
    11  C   -0.000755   0.001190  -0.020794  -0.070475   0.245058   0.017688
    12  C    0.000188  -0.000048   0.019072   0.015102   0.223402  -0.027259
    13  C    0.000565  -0.001683  -0.001011   0.023488  -0.423486  -0.033794
    14  H    0.441824  -0.117122   0.029688   0.000464  -0.001354   0.000001
    15  H    0.447652  -0.072752  -0.022609   0.000567  -0.004935  -0.000058
    16  H   -0.059668   0.424483  -0.059371   0.001548   0.005166  -0.000182
    17  H   -0.030070   0.441827  -0.089558   0.008324  -0.005598  -0.000076
    18  H   -0.015775  -0.087194   0.391014  -0.071975   0.058269   0.002181
    19  H    0.004656  -0.035695   0.519443  -0.045720  -0.100586  -0.000755
    20  H    0.001069  -0.004549  -0.023478   0.145037   0.002458   0.003738
    21  H    0.000018  -0.000041   0.003800   0.001461   0.040028  -0.002718
    22  H   -0.000002   0.000023  -0.000059   0.000476   0.009344   0.000073
    23  H    0.000000  -0.000000   0.000026   0.000023   0.002914  -0.000003
    24  N    0.000003  -0.000047  -0.000352   0.000367  -0.019847   0.004011
    25  H    0.000000   0.000000  -0.000000  -0.000005   0.000003   0.000005
    26  O   -0.000003   0.000029  -0.000386  -0.000574  -0.009452  -0.001431
    27  O    0.000000  -0.000001   0.000145   0.000060   0.005601   0.000075
    28  H    0.398997  -0.060732   0.004544  -0.000345   0.004161   0.000002
    29  H    0.000014  -0.001224   0.010738   0.016499  -0.004200   0.002445
    30  O   -0.000646  -0.003385   0.005578   0.005121   0.016046  -0.000610
    31  O    0.001100  -0.012159  -0.002891  -0.031620   0.001530   0.000324
    32  C   -0.004993  -0.001272  -0.003654  -0.002701  -0.019569  -0.000434
    33  C    0.003869  -0.005531   0.029149  -0.035137  -0.037482  -0.000763
    34  C    0.000180   0.001800  -0.004570   0.004792   0.000762   0.000040
    35  H   -0.000014  -0.000146   0.000141   0.000069  -0.000383  -0.000000
    36  H    0.000014   0.000216  -0.000184  -0.000050  -0.000143  -0.000000
    37  H    0.000099   0.000150  -0.000243  -0.000060   0.000016  -0.000000
    38  H   -0.000010  -0.000025  -0.000005   0.000026   0.000020   0.000000
    39  H   -0.000124  -0.000183  -0.000100  -0.000049   0.000034  -0.000000
               7          8          9         10         11         12
     1  C   -0.001431  -0.007626   0.007017  -0.005136  -0.000755   0.000188
     2  C    0.010929   0.000405  -0.021959   0.010435   0.001190  -0.000048
     3  C   -0.169636  -0.546369   0.308348  -0.237361  -0.020794   0.019072
     4  N   -0.363161  -0.331485   0.297381  -0.194994  -0.070475   0.015102
     5  C    0.083702  -1.583830   1.136470  -1.371702   0.245058   0.223402
     6  O   -0.072779  -0.317328   0.315579  -0.102089   0.017688  -0.027259
     7  N    8.010900  -0.063515   0.069663   0.104683  -0.063344   0.056580
     8  C   -0.063515  27.276716 -14.046204  -0.559015   3.068149  -5.229617
     9  C    0.069663 -14.046204  26.167305  -5.469015  -6.916876   2.746209
    10  C    0.104683  -0.559015  -5.469015  19.933453  -5.424552  -0.165450
    11  C   -0.063344   3.068149  -6.916876  -5.424552  17.821824  -2.524313
    12  C    0.056580  -5.229617   2.746209  -0.165450  -2.524313  13.168825
    13  C    0.056223  -2.199475   1.001828  -0.120845  -0.114936  -2.896368
    14  H    0.000015  -0.000031   0.000003  -0.000002  -0.000000   0.000000
    15  H    0.000017  -0.000201   0.000019  -0.000006   0.000000   0.000000
    16  H   -0.000671   0.002105  -0.000236   0.000120  -0.000018  -0.000001
    17  H    0.000662  -0.002883   0.000037   0.000191   0.000030   0.000003
    18  H   -0.001108   0.016699  -0.001264   0.000629  -0.000148  -0.000030
    19  H    0.001026  -0.021739   0.000620  -0.000780   0.000160   0.000093
    20  H    0.011204   0.000400  -0.005346   0.002215   0.000798  -0.000080
    21  H   -0.012100  -0.109886   0.358604   0.003423  -0.030525   0.059784
    22  H   -0.009000   0.048020   0.010384   0.170731   0.074081  -0.018728
    23  H    0.000364   0.027672   0.008132  -0.006629   0.272460   0.046076
    24  N   -0.012264  -0.027880  -0.227420   0.035535  -0.001035   0.319950
    25  H   -0.000361   0.017347   0.024243  -0.005492  -0.073729   0.248444
    26  O    0.000684   0.304385  -0.088725  -0.009807  -0.017357   0.124533
    27  O   -0.000867   0.117089   0.040047  -0.005405   0.193556  -0.174642
    28  H    0.000033   0.000134  -0.000009   0.000002  -0.000000   0.000000
    29  H    0.088380  -0.018987   0.089447  -0.102622   0.015304   0.002703
    30  O    0.000129  -0.319033   0.017019   0.216382   0.070553   0.003142
    31  O    0.018443  -0.028240  -0.010350   0.026324  -0.001864   0.000657
    32  C   -0.011986   0.093479  -0.000582  -0.028891  -0.072263   0.000545
    33  C   -0.022606  -0.026311  -0.031056   0.023698   0.026440  -0.001384
    34  C    0.005523  -0.004933  -0.000503   0.004521  -0.002240   0.000203
    35  H   -0.000261  -0.001490  -0.000131   0.001528   0.000711   0.000011
    36  H   -0.000030  -0.001477  -0.000078   0.001322   0.000311   0.000017
    37  H   -0.000011  -0.000005   0.000008   0.000028   0.000004   0.000000
    38  H   -0.000009   0.000056   0.000002  -0.000052  -0.000005   0.000000
    39  H   -0.000017  -0.000033   0.000003   0.000082   0.000013   0.000000
              13         14         15         16         17         18
     1  C    0.000565   0.441824   0.447652  -0.059668  -0.030070  -0.015775
     2  C   -0.001683  -0.117122  -0.072752   0.424483   0.441827  -0.087194
     3  C   -0.001011   0.029688  -0.022609  -0.059371  -0.089558   0.391014
     4  N    0.023488   0.000464   0.000567   0.001548   0.008324  -0.071975
     5  C   -0.423486  -0.001354  -0.004935   0.005166  -0.005598   0.058269
     6  O   -0.033794   0.000001  -0.000058  -0.000182  -0.000076   0.002181
     7  N    0.056223   0.000015   0.000017  -0.000671   0.000662  -0.001108
     8  C   -2.199475  -0.000031  -0.000201   0.002105  -0.002883   0.016699
     9  C    1.001828   0.000003   0.000019  -0.000236   0.000037  -0.001264
    10  C   -0.120845  -0.000002  -0.000006   0.000120   0.000191   0.000629
    11  C   -0.114936  -0.000000   0.000000  -0.000018   0.000030  -0.000148
    12  C   -2.896368   0.000000   0.000000  -0.000001   0.000003  -0.000030
    13  C   11.920969   0.000000   0.000001   0.000023  -0.000014   0.000153
    14  H    0.000000   0.511326  -0.028174  -0.002949  -0.002814  -0.000085
    15  H    0.000001  -0.028174   0.512836  -0.004712   0.003767  -0.000527
    16  H    0.000023  -0.002949  -0.004712   0.506317  -0.032237   0.004553
    17  H   -0.000014  -0.002814   0.003767  -0.032237   0.468068  -0.005397
    18  H    0.000153  -0.000085  -0.000527   0.004553  -0.005397   0.554298
    19  H    0.000060  -0.000081   0.002530  -0.005999   0.003836  -0.044230
    20  H   -0.000257   0.000000   0.000004  -0.000478   0.002803   0.000905
    21  H   -0.008364   0.000000  -0.000000   0.000000  -0.000000   0.000000
    22  H    0.002373   0.000000  -0.000000  -0.000000  -0.000000  -0.000000
    23  H   -0.044635  -0.000000   0.000000   0.000000   0.000000   0.000000
    24  N   -0.424026   0.000000  -0.000000  -0.000000  -0.000000   0.000002
    25  H    0.114408   0.000000  -0.000000  -0.000000  -0.000000  -0.000000
    26  O   -0.391369  -0.000000   0.000000   0.000000   0.000000  -0.000000
    27  O   -0.274112   0.000000   0.000000  -0.000000   0.000000  -0.000000
    28  H    0.000001  -0.027328  -0.032926   0.003952  -0.004290   0.002944
    29  H    0.000408  -0.000000  -0.000000  -0.000003   0.000009  -0.000007
    30  O    0.001030   0.000000  -0.000000   0.000058  -0.000030  -0.000001
    31  O   -0.000150   0.000009  -0.000044   0.001123  -0.005999   0.001015
    32  C    0.000313  -0.000040  -0.000083   0.000326  -0.000431   0.000193
    33  C   -0.001682   0.000034  -0.000018   0.000633  -0.000659   0.000180
    34  C    0.000192  -0.000010   0.000006  -0.000162   0.000207  -0.000046
    35  H    0.000012   0.000000   0.000000  -0.000000   0.000000  -0.000000
    36  H    0.000004  -0.000000   0.000000  -0.000000   0.000000   0.000000
    37  H    0.000000   0.000000  -0.000000   0.000000  -0.000002   0.000000
    38  H    0.000000  -0.000000  -0.000000   0.000000   0.000000   0.000000
    39  H    0.000000   0.000000  -0.000000   0.000000  -0.000002   0.000000
              19         20         21         22         23         24
     1  C    0.004656   0.001069   0.000018  -0.000002   0.000000   0.000003
     2  C   -0.035695  -0.004549  -0.000041   0.000023  -0.000000  -0.000047
     3  C    0.519443  -0.023478   0.003800  -0.000059   0.000026  -0.000352
     4  N   -0.045720   0.145037   0.001461   0.000476   0.000023   0.000367
     5  C   -0.100586   0.002458   0.040028   0.009344   0.002914  -0.019847
     6  O   -0.000755   0.003738  -0.002718   0.000073  -0.000003   0.004011
     7  N    0.001026   0.011204  -0.012100  -0.009000   0.000364  -0.012264
     8  C   -0.021739   0.000400  -0.109886   0.048020   0.027672  -0.027880
     9  C    0.000620  -0.005346   0.358604   0.010384   0.008132  -0.227420
    10  C   -0.000780   0.002215   0.003423   0.170731  -0.006629   0.035535
    11  C    0.000160   0.000798  -0.030525   0.074081   0.272460  -0.001035
    12  C    0.000093  -0.000080   0.059784  -0.018728   0.046076   0.319950
    13  C    0.000060  -0.000257  -0.008364   0.002373  -0.044635  -0.424026
    14  H   -0.000081   0.000000   0.000000   0.000000  -0.000000   0.000000
    15  H    0.002530   0.000004  -0.000000  -0.000000   0.000000  -0.000000
    16  H   -0.005999  -0.000478   0.000000  -0.000000   0.000000  -0.000000
    17  H    0.003836   0.002803  -0.000000  -0.000000   0.000000  -0.000000
    18  H   -0.044230   0.000905   0.000000  -0.000000   0.000000   0.000002
    19  H    0.498013   0.002079  -0.000002   0.000000   0.000000  -0.000007
    20  H    0.002079   0.250396  -0.000000   0.000004   0.000000  -0.000003
    21  H   -0.000002  -0.000000   0.391343  -0.000086   0.000013  -0.023427
    22  H    0.000000   0.000004  -0.000086   0.431482  -0.003511  -0.000128
    23  H    0.000000   0.000000   0.000013  -0.003511   0.502807   0.000269
    24  N   -0.000007  -0.000003  -0.023427  -0.000128   0.000269   6.971699
    25  H   -0.000000   0.000000  -0.000092  -0.000097  -0.003193  -0.033899
    26  O    0.000001   0.000000   0.012280   0.000004   0.000054   0.432017
    27  O    0.000000   0.000000  -0.001472  -0.000005  -0.000032   0.349891
    28  H   -0.000194  -0.000006   0.000000   0.000000   0.000000  -0.000000
    29  H    0.000015   0.009269  -0.000147   0.006789  -0.000008  -0.000138
    30  O   -0.000010   0.000048   0.000006  -0.002009   0.000091  -0.000040
    31  O   -0.000666   0.075847   0.000002   0.000051   0.000000   0.000001
    32  C    0.000592  -0.010201   0.000060   0.000820  -0.000059   0.000036
    33  C    0.000013   0.022778  -0.000003   0.000776  -0.000005   0.000005
    34  C    0.000022  -0.003355  -0.000000   0.000033  -0.000002  -0.000001
    35  H    0.000000  -0.000022   0.000000  -0.000005  -0.000000  -0.000000
    36  H    0.000000  -0.000022   0.000000  -0.000002  -0.000000  -0.000000
    37  H   -0.000000  -0.000011   0.000000   0.000000  -0.000000  -0.000000
    38  H    0.000000   0.000000  -0.000000  -0.000000   0.000000  -0.000000
    39  H   -0.000000  -0.000012   0.000000   0.000000  -0.000000  -0.000000
              25         26         27         28         29         30
     1  C    0.000000  -0.000003   0.000000   0.398997   0.000014  -0.000646
     2  C    0.000000   0.000029  -0.000001  -0.060732  -0.001224  -0.003385
     3  C   -0.000000  -0.000386   0.000145   0.004544   0.010738   0.005578
     4  N   -0.000005  -0.000574   0.000060  -0.000345   0.016499   0.005121
     5  C    0.000003  -0.009452   0.005601   0.004161  -0.004200   0.016046
     6  O    0.000005  -0.001431   0.000075   0.000002   0.002445  -0.000610
     7  N   -0.000361   0.000684  -0.000867   0.000033   0.088380   0.000129
     8  C    0.017347   0.304385   0.117089   0.000134  -0.018987  -0.319033
     9  C    0.024243  -0.088725   0.040047  -0.000009   0.089447   0.017019
    10  C   -0.005492  -0.009807  -0.005405   0.000002  -0.102622   0.216382
    11  C   -0.073729  -0.017357   0.193556  -0.000000   0.015304   0.070553
    12  C    0.248444   0.124533  -0.174642   0.000000   0.002703   0.003142
    13  C    0.114408  -0.391369  -0.274112   0.000001   0.000408   0.001030
    14  H    0.000000  -0.000000   0.000000  -0.027328  -0.000000   0.000000
    15  H   -0.000000   0.000000   0.000000  -0.032926  -0.000000  -0.000000
    16  H   -0.000000   0.000000  -0.000000   0.003952  -0.000003   0.000058
    17  H   -0.000000   0.000000   0.000000  -0.004290   0.000009  -0.000030
    18  H   -0.000000  -0.000000  -0.000000   0.002944  -0.000007  -0.000001
    19  H   -0.000000   0.000001   0.000000  -0.000194   0.000015  -0.000010
    20  H    0.000000   0.000000   0.000000  -0.000006   0.009269   0.000048
    21  H   -0.000092   0.012280  -0.001472   0.000000  -0.000147   0.000006
    22  H   -0.000097   0.000004  -0.000005   0.000000   0.006789  -0.002009
    23  H   -0.003193   0.000054  -0.000032   0.000000  -0.000008   0.000091
    24  N   -0.033899   0.432017   0.349891  -0.000000  -0.000138  -0.000040
    25  H    0.468161  -0.002072   0.013741  -0.000000  -0.000000   0.000004
    26  O   -0.002072   7.779453  -0.097581   0.000000   0.000008  -0.000001
    27  O    0.013741  -0.097581   7.893811  -0.000000  -0.000001   0.000000
    28  H   -0.000000   0.000000  -0.000000   0.509215  -0.000000   0.000000
    29  H   -0.000000   0.000008  -0.000001  -0.000000   0.268813   0.095085
    30  O    0.000004  -0.000001   0.000000   0.000000   0.095085   8.589498
    31  O    0.000000  -0.000000  -0.000000   0.000066  -0.001246  -0.179824
    32  C    0.000006   0.000018   0.000018   0.000069  -0.006744   0.347509
    33  C   -0.000001   0.000003   0.000000   0.000010   0.018136  -0.215148
    34  C   -0.000000   0.000000  -0.000000  -0.000007  -0.002968   0.035115
    35  H    0.000000   0.000000   0.000000  -0.000000  -0.000005  -0.002153
    36  H    0.000000   0.000000  -0.000000  -0.000000  -0.000005  -0.003082
    37  H   -0.000000   0.000000  -0.000000  -0.000000  -0.000000   0.000124
    38  H    0.000000  -0.000000  -0.000000   0.000000   0.000000  -0.000314
    39  H   -0.000000   0.000000   0.000000  -0.000000  -0.000000   0.000129
              31         32         33         34         35         36
     1  C    0.001100  -0.004993   0.003869   0.000180  -0.000014   0.000014
     2  C   -0.012159  -0.001272  -0.005531   0.001800  -0.000146   0.000216
     3  C   -0.002891  -0.003654   0.029149  -0.004570   0.000141  -0.000184
     4  N   -0.031620  -0.002701  -0.035137   0.004792   0.000069  -0.000050
     5  C    0.001530  -0.019569  -0.037482   0.000762  -0.000383  -0.000143
     6  O    0.000324  -0.000434  -0.000763   0.000040  -0.000000  -0.000000
     7  N    0.018443  -0.011986  -0.022606   0.005523  -0.000261  -0.000030
     8  C   -0.028240   0.093479  -0.026311  -0.004933  -0.001490  -0.001477
     9  C   -0.010350  -0.000582  -0.031056  -0.000503  -0.000131  -0.000078
    10  C    0.026324  -0.028891   0.023698   0.004521   0.001528   0.001322
    11  C   -0.001864  -0.072263   0.026440  -0.002240   0.000711   0.000311
    12  C    0.000657   0.000545  -0.001384   0.000203   0.000011   0.000017
    13  C   -0.000150   0.000313  -0.001682   0.000192   0.000012   0.000004
    14  H    0.000009  -0.000040   0.000034  -0.000010   0.000000  -0.000000
    15  H   -0.000044  -0.000083  -0.000018   0.000006   0.000000   0.000000
    16  H    0.001123   0.000326   0.000633  -0.000162  -0.000000  -0.000000
    17  H   -0.005999  -0.000431  -0.000659   0.000207   0.000000   0.000000
    18  H    0.001015   0.000193   0.000180  -0.000046  -0.000000   0.000000
    19  H   -0.000666   0.000592   0.000013   0.000022   0.000000   0.000000
    20  H    0.075847  -0.010201   0.022778  -0.003355  -0.000022  -0.000022
    21  H    0.000002   0.000060  -0.000003  -0.000000   0.000000   0.000000
    22  H    0.000051   0.000820   0.000776   0.000033  -0.000005  -0.000002
    23  H    0.000000  -0.000059  -0.000005  -0.000002  -0.000000  -0.000000
    24  N    0.000001   0.000036   0.000005  -0.000001  -0.000000  -0.000000
    25  H    0.000000   0.000006  -0.000001  -0.000000   0.000000   0.000000
    26  O   -0.000000   0.000018   0.000003   0.000000   0.000000   0.000000
    27  O   -0.000000   0.000018   0.000000  -0.000000   0.000000  -0.000000
    28  H    0.000066   0.000069   0.000010  -0.000007  -0.000000  -0.000000
    29  H   -0.001246  -0.006744   0.018136  -0.002968  -0.000005  -0.000005
    30  O   -0.179824   0.347509  -0.215148   0.035115  -0.002153  -0.003082
    31  O    8.471686   0.390546  -0.124853   0.045469   0.000749   0.002001
    32  C    0.390546   5.689861  -0.923877  -0.010995  -0.077147  -0.069199
    33  C   -0.124853  -0.923877   7.449065  -0.320477   0.440538   0.434510
    34  C    0.045469  -0.010995  -0.320477   5.841515  -0.043540  -0.045633
    35  H    0.000749  -0.077147   0.440538  -0.043540   0.505027  -0.029874
    36  H    0.002001  -0.069199   0.434510  -0.045633  -0.029874   0.504730
    37  H   -0.004599  -0.009090  -0.056519   0.422334  -0.004013   0.003667
    38  H    0.002357   0.040097  -0.094523   0.392960  -0.002009  -0.002034
    39  H   -0.005311  -0.008549  -0.058848   0.425319   0.003665  -0.003981
              37         38         39
     1  C    0.000099  -0.000010  -0.000124
     2  C    0.000150  -0.000025  -0.000183
     3  C   -0.000243  -0.000005  -0.000100
     4  N   -0.000060   0.000026  -0.000049
     5  C    0.000016   0.000020   0.000034
     6  O   -0.000000   0.000000  -0.000000
     7  N   -0.000011  -0.000009  -0.000017
     8  C   -0.000005   0.000056  -0.000033
     9  C    0.000008   0.000002   0.000003
    10  C    0.000028  -0.000052   0.000082
    11  C    0.000004  -0.000005   0.000013
    12  C    0.000000   0.000000   0.000000
    13  C    0.000000   0.000000   0.000000
    14  H    0.000000  -0.000000   0.000000
    15  H   -0.000000  -0.000000  -0.000000
    16  H    0.000000   0.000000   0.000000
    17  H   -0.000002   0.000000  -0.000002
    18  H    0.000000   0.000000   0.000000
    19  H   -0.000000   0.000000  -0.000000
    20  H   -0.000011   0.000000  -0.000012
    21  H    0.000000  -0.000000   0.000000
    22  H    0.000000  -0.000000   0.000000
    23  H   -0.000000   0.000000  -0.000000
    24  N   -0.000000  -0.000000  -0.000000
    25  H   -0.000000   0.000000  -0.000000
    26  O    0.000000  -0.000000   0.000000
    27  O   -0.000000  -0.000000   0.000000
    28  H   -0.000000   0.000000  -0.000000
    29  H   -0.000000   0.000000  -0.000000
    30  O    0.000124  -0.000314   0.000129
    31  O   -0.004599   0.002357  -0.005311
    32  C   -0.009090   0.040097  -0.008549
    33  C   -0.056519  -0.094523  -0.058848
    34  C    0.422334   0.392960   0.425319
    35  H   -0.004013  -0.002009   0.003665
    36  H    0.003667  -0.002034  -0.003981
    37  H    0.490435  -0.030374  -0.026831
    38  H   -0.030374   0.551345  -0.030305
    39  H   -0.026831  -0.030305   0.489658
 Mulliken charges:
               1
     1  C   -0.766247
     2  C   -0.317873
     3  C   -0.173032
     4  N   -0.683150
     5  C    0.668734
     6  O   -0.609211
     7  N   -0.714005
     8  C    0.474940
     9  C    0.221387
    10  C   -0.725452
    11  C   -0.473100
    12  C    0.002379
    13  C   -0.185843
    14  H    0.196625
    15  H    0.199647
    16  H    0.216278
    17  H    0.250297
    18  H    0.194752
    19  H    0.223305
    20  H    0.516767
    21  H    0.318040
    22  H    0.278168
    23  H    0.197177
    24  N   -0.343271
    25  H    0.232581
    26  O   -0.034711
    27  O   -0.059915
    28  H    0.201707
    29  H    0.514241
    30  O   -0.676380
    31  O   -0.629484
    32  C    0.698271
    33  C   -0.492951
    34  C   -0.741551
    35  H    0.208743
    36  H    0.209003
    37  H    0.214894
    38  H    0.172800
    39  H    0.215443
 Sum of Mulliken charges =  -1.00000
 Mulliken charges with hydrogens summed into heavy atoms:
               1
     1  C   -0.168269
     2  C    0.148702
     3  C    0.245025
     4  N   -0.166383
     5  C    0.668734
     6  O   -0.609211
     7  N   -0.199764
     8  C    0.474940
     9  C    0.539428
    10  C   -0.447284
    11  C   -0.275923
    12  C    0.234960
    13  C   -0.185843
    24  N   -0.343271
    26  O   -0.034711
    27  O   -0.059915
    30  O   -0.676380
    31  O   -0.629484
    32  C    0.698271
    33  C   -0.075205
    34  C   -0.138414
         Mulliken charges condensed to fragments:
      1     -0.178787
      2     -0.821213
 Electronic spatial extent (au):  <R**2>=           9648.0197
 Charge=             -1.0000 electrons
 Dipole moment (field-independent basis, Debye):
    X=             -2.0646    Y=             -1.5227    Z=             -0.2524  Tot=              2.5778
 Quadrupole moment (field-independent basis, Debye-Ang):
   XX=           -200.6815   YY=           -148.5817   ZZ=           -130.0425
   XY=            -20.7145   XZ=             -0.2291   YZ=             -1.0247
 Traceless Quadrupole moment (field-independent basis, Debye-Ang):
   XX=            -40.9129   YY=             11.1868   ZZ=             29.7261
   XY=            -20.7145   XZ=             -0.2291   YZ=             -1.0247
 Octapole moment (field-independent basis, Debye-Ang**2):
  XXX=           -176.4680  YYY=            -18.3378  ZZZ=              2.2152  XYY=             15.8797
  XXY=            -29.5086  XXZ=             -8.9284  XZZ=              3.8833  YZZ=              8.3988
  YYZ=             -2.2322  XYZ=             -1.8196
 Hexadecapole moment (field-independent basis, Debye-Ang**3):
 XXXX=         -11811.0721 YYYY=          -3744.5580 ZZZZ=           -186.5410 XXXY=           -355.5115
 XXXZ=              5.6214 YYYX=            -40.6120 YYYZ=            -11.3000 ZZZX=              4.8492
 ZZZY=              1.7199 XXYY=          -2348.3571 XXZZ=          -1582.5337 YYZZ=           -633.8234
 XXYZ=              4.1146 YYXZ=             -4.4381 ZZXY=             36.9101
 N-N= 1.638685926123D+03 E-N=-5.736813170882D+03  KE= 1.037474679545D+03
 CPIOFr:  IOpCl= 0 IRwI=-1 IRwCP=  731 ICalc= -1 LCPTot=      296755 Len1MO=      765188 IndFrg=      296755
 CPIOFr:  IOpCl= 0 IRwI=-1 IRwCP=  731 ICalc=  0 LCPTot=      296755 Len1MO=      765188 IndFrg=     1061943
 Counterpoise: doing DCBS calculation for fragment   1 NewBq=T
 Basis read from rwf:  (6D, 7F)
 There are   435 symmetry adapted cartesian basis functions of A   symmetry.
 There are   435 symmetry adapted basis functions of A   symmetry.
   435 basis functions,   744 primitive gaussians,   435 cartesian basis functions
    59 alpha electrons       59 beta electrons
       nuclear repulsion energy      1042.4710705623 Hartrees.
 NAtoms=   39 NActive=   39 NUniq=   39 SFac= 1.00D+00 NAtFMM=   60 NAOKFM=F Big=F
 Integral buffers will be    131072 words long.
 Raffenetti 2 integral format.
 Two-electron integral symmetry is turned on.
 One-electron integrals computed using PRISM.
 NBasis=   435 RedAO= T EigKep=  1.10D-06  NBF=   435
 NBsUse=   434 1.00D-06 EigRej=  8.25D-07 NBFU=   434
 ExpMin= 4.38D-02 ExpMax= 5.48D+03 ExpMxC= 8.25D+02 IAcc=3 IRadAn=         5 AccDes= 0.00D+00
 Harris functional with IExCor= 1009 and IRadAn=       5 diagonalized for initial guess.
 HarFok:  IExCor= 1009 AccDes= 0.00D+00 IRadAn=         5 IDoV= 1 UseB2=F ITyADJ=14
 ICtDFT=  3500011 ScaDFX=  1.000000  1.000000  1.000000  1.000000
 FoFCou: FMM=F IPFlag=           0 FMFlag=      100000 FMFlg1=           0
         NFxFlg=           0 DoJE=T BraDBF=F KetDBF=T FulRan=T
         wScrn=  0.000000 ICntrl=     500 IOpCl=  0 I1Cent=   200000004 NGrid=           0
         NMat0=    1 NMatS0=      1 NMatT0=    0 NMatD0=    1 NMtDS0=    0 NMtDT0=    0
 Petite list used in FoFCou.
 Requested convergence on RMS density matrix=1.00D-08 within 128 cycles.
 Requested convergence on MAX density matrix=1.00D-06.
 Requested convergence on             energy=1.00D-06.
 No special actions if energy rises.
 SCF Done:  E(RM062X) =  -778.443990486     A.U. after   15 cycles
            NFock= 15  Conv=0.72D-08     -V/T= 2.0086

 **********************************************************************

            Population analysis using the SCF density.

 **********************************************************************

 Orbital symmetries:
       Occupied  (A) (A) (A) (A) (A) (A) (A) (A) (A) (A) (A) (A)
                 (A) (A) (A) (A) (A) (A) (A) (A) (A) (A) (A) (A)
                 (A) (A) (A) (A) (A) (A) (A) (A) (A) (A) (A) (A)
                 (A) (A) (A) (A) (A) (A) (A) (A) (A) (A) (A) (A)
                 (A) (A) (A) (A) (A) (A) (A) (A) (A) (A) (A)
       Virtual   (A) (A) (A) (A) (A) (A) (A) (A) (A) (A) (A) (A)
                 (A) (A) (A) (A) (A) (A) (A) (A) (A) (A) (A) (A)
                 (A) (A) (A) (A) (A) (A) (A) (A) (A) (A) (A) (A)
                 (A) (A) (A) (A) (A) (A) (A) (A) (A) (A) (A) (A)
                 (A) (A) (A) (A) (A) (A) (A) (A) (A) (A) (A) (A)
                 (A) (A) (A) (A) (A) (A) (A) (A) (A) (A) (A) (A)
                 (A) (A) (A) (A) (A) (A) (A) (A) (A) (A) (A) (A)
                 (A) (A) (A) (A) (A) (A) (A) (A) (A) (A) (A) (A)
                 (A) (A) (A) (A) (A) (A) (A) (A) (A) (A) (A) (A)
                 (A) (A) (A) (A) (A) (A) (A) (A) (A) (A) (A) (A)
                 (A) (A) (A) (A) (A) (A) (A) (A) (A) (A) (A) (A)
                 (A) (A) (A) (A) (A) (A) (A) (A) (A) (A) (A) (A)
                 (A) (A) (A) (A) (A) (A) (A) (A) (A) (A) (A) (A)
                 (A) (A) (A) (A) (A) (A) (A) (A) (A) (A) (A) (A)
                 (A) (A) (A) (A) (A) (A) (A) (A) (A) (A) (A) (A)
                 (A) (A) (A) (A) (A) (A) (A) (A) (A) (A) (A) (A)
                 (A) (A) (A) (A) (A) (A) (A) (A) (A) (A) (A) (A)
                 (A) (A) (A) (A) (A) (A) (A) (A) (A) (A) (A) (A)
                 (A) (A) (A) (A) (A) (A) (A) (A) (A) (A) (A) (A)
                 (A) (A) (A) (A) (A) (A) (A) (A) (A) (A) (A) (A)
                 (A) (A) (A) (A) (A) (A) (A) (A) (A) (A) (A) (A)
                 (A) (A) (A) (A) (A) (A) (A) (A) (A) (A) (A) (A)
                 (A) (A) (A) (A) (A) (A) (A) (A) (A) (A) (A) (A)
                 (A) (A) (A) (A) (A) (A) (A) (A) (A) (A) (A) (A)
                 (A) (A) (A) (A) (A) (A) (A) (A) (A) (A) (A) (A)
                 (A) (A) (A) (A) (A) (A) (A) (A) (A) (A) (A) (A)
                 (A) (A) (A) (A) (A) (A) (A) (A) (A) (A) (A) (A)
                 (A) (A) (A) (A) (A) (A) (A) (A) (A) (A) (A) (A)
                 (A) (A) (A) (A) (A) (A) (A) (A) (A) (A) (A) (A)
                 (A) (A) (A) (A) (A) (A) (A) (A) (A) (A) (A) (A)
                 (A) (A) (A) (A) (A) (A) (A) (A) (A) (A) (A) (A)
                 (A) (A) (A)
 The electronic state is 1-A.
 Alpha  occ. eigenvalues --  -19.67948 -19.67761 -19.62551 -15.01070 -14.82714
 Alpha  occ. eigenvalues --  -14.80856 -10.70296 -10.63094 -10.62026 -10.59571
 Alpha  occ. eigenvalues --  -10.58543 -10.58298 -10.57796 -10.57611 -10.56765
 Alpha  occ. eigenvalues --  -10.55379  -1.36403  -1.19022  -1.17613  -1.08172
 Alpha  occ. eigenvalues --   -1.05192  -0.99131  -0.91317  -0.89977  -0.86606
 Alpha  occ. eigenvalues --   -0.80717  -0.79467  -0.73914  -0.70648  -0.69953
 Alpha  occ. eigenvalues --   -0.68577  -0.65428  -0.64686  -0.62002  -0.59779
 Alpha  occ. eigenvalues --   -0.59304  -0.58815  -0.57258  -0.55003  -0.54022
 Alpha  occ. eigenvalues --   -0.53842  -0.52300  -0.50821  -0.49361  -0.48178
 Alpha  occ. eigenvalues --   -0.46634  -0.46113  -0.44637  -0.44409  -0.42314
 Alpha  occ. eigenvalues --   -0.41688  -0.39864  -0.38688  -0.37393  -0.37347
 Alpha  occ. eigenvalues --   -0.35829  -0.33847  -0.33554  -0.28878
 Alpha virt. eigenvalues --   -0.05313  -0.02799   0.00329   0.00720   0.01669
 Alpha virt. eigenvalues --    0.02092   0.02283   0.02844   0.03384   0.03941
 Alpha virt. eigenvalues --    0.04257   0.04683   0.05003   0.05860   0.06088
 Alpha virt. eigenvalues --    0.06210   0.07006   0.07575   0.07647   0.08189
 Alpha virt. eigenvalues --    0.08459   0.08737   0.08873   0.09712   0.09982
 Alpha virt. eigenvalues --    0.10150   0.10540   0.10980   0.11415   0.11496
 Alpha virt. eigenvalues --    0.12204   0.12754   0.13551   0.13889   0.13973
 Alpha virt. eigenvalues --    0.14254   0.14835   0.15274   0.15619   0.15741
 Alpha virt. eigenvalues --    0.16568   0.16742   0.17076   0.17419   0.17858
 Alpha virt. eigenvalues --    0.18421   0.18667   0.19035   0.19425   0.19895
 Alpha virt. eigenvalues --    0.20171   0.20301   0.20833   0.21063   0.21772
 Alpha virt. eigenvalues --    0.21966   0.22193   0.22697   0.23172   0.23433
 Alpha virt. eigenvalues --    0.23874   0.24359   0.24630   0.25051   0.25333
 Alpha virt. eigenvalues --    0.25611   0.25872   0.26146   0.26563   0.27059
 Alpha virt. eigenvalues --    0.27413   0.27917   0.28331   0.28580   0.28795
 Alpha virt. eigenvalues --    0.29346   0.29760   0.30414   0.30561   0.30794
 Alpha virt. eigenvalues --    0.31315   0.31630   0.32088   0.32273   0.33134
 Alpha virt. eigenvalues --    0.33404   0.33768   0.34032   0.34415   0.34479
 Alpha virt. eigenvalues --    0.35161   0.35653   0.35802   0.36470   0.37120
 Alpha virt. eigenvalues --    0.37940   0.38318   0.39089   0.39227   0.39772
 Alpha virt. eigenvalues --    0.40540   0.40713   0.41192   0.41635   0.43031
 Alpha virt. eigenvalues --    0.43213   0.43951   0.44324   0.45021   0.46475
 Alpha virt. eigenvalues --    0.47663   0.49077   0.49796   0.50113   0.51975
 Alpha virt. eigenvalues --    0.52819   0.53779   0.53931   0.54587   0.55770
 Alpha virt. eigenvalues --    0.57421   0.59739   0.60671   0.61515   0.62145
 Alpha virt. eigenvalues --    0.64682   0.65465   0.66533   0.67916   0.69095
 Alpha virt. eigenvalues --    0.69440   0.70466   0.72245   0.72521   0.73252
 Alpha virt. eigenvalues --    0.73563   0.74263   0.75019   0.75500   0.75983
 Alpha virt. eigenvalues --    0.76603   0.76988   0.77760   0.78361   0.78577
 Alpha virt. eigenvalues --    0.79037   0.80518   0.80692   0.82122   0.83525
 Alpha virt. eigenvalues --    0.84848   0.85467   0.85970   0.86593   0.87635
 Alpha virt. eigenvalues --    0.89035   0.89192   0.90864   0.91955   0.93036
 Alpha virt. eigenvalues --    0.94105   0.95421   0.96003   0.97360   0.98358
 Alpha virt. eigenvalues --    0.99458   1.01481   1.01937   1.02806   1.02944
 Alpha virt. eigenvalues --    1.04406   1.04969   1.05378   1.05907   1.07123
 Alpha virt. eigenvalues --    1.08515   1.11935   1.12660   1.14449   1.15759
 Alpha virt. eigenvalues --    1.16737   1.17100   1.17652   1.18953   1.19223
 Alpha virt. eigenvalues --    1.19814   1.22951   1.24600   1.24949   1.25825
 Alpha virt. eigenvalues --    1.26521   1.26947   1.27512   1.28907   1.30119
 Alpha virt. eigenvalues --    1.31645   1.32614   1.34253   1.36245   1.37068
 Alpha virt. eigenvalues --    1.37262   1.37460   1.38347   1.38832   1.39519
 Alpha virt. eigenvalues --    1.42594   1.42932   1.43881   1.45185   1.45671
 Alpha virt. eigenvalues --    1.45969   1.48172   1.49805   1.49979   1.50889
 Alpha virt. eigenvalues --    1.51088   1.51181   1.52376   1.55750   1.56303
 Alpha virt. eigenvalues --    1.57780   1.59821   1.64403   1.69044   1.70161
 Alpha virt. eigenvalues --    1.76421   1.77755   1.80778   1.82059   1.84128
 Alpha virt. eigenvalues --    1.86285   1.86430   1.86779   1.87401   1.89849
 Alpha virt. eigenvalues --    1.89972   1.91950   1.94019   1.94337   1.94702
 Alpha virt. eigenvalues --    1.95735   1.96601   1.97784   1.98822   1.99472
 Alpha virt. eigenvalues --    2.01063   2.01826   2.01989   2.03908   2.04401
 Alpha virt. eigenvalues --    2.05174   2.06619   2.08179   2.10343   2.11577
 Alpha virt. eigenvalues --    2.12832   2.14286   2.14511   2.17420   2.18738
 Alpha virt. eigenvalues --    2.18878   2.19203   2.21096   2.22303   2.22462
 Alpha virt. eigenvalues --    2.23793   2.24287   2.26129   2.27413   2.28164
 Alpha virt. eigenvalues --    2.30828   2.31164   2.34098   2.35472   2.37267
 Alpha virt. eigenvalues --    2.38860   2.39478   2.40052   2.40484   2.43016
 Alpha virt. eigenvalues --    2.43775   2.49666   2.51316   2.52178   2.54007
 Alpha virt. eigenvalues --    2.57432   2.57886   2.59078   2.60270   2.62079
 Alpha virt. eigenvalues --    2.62272   2.64177   2.64809   2.67460   2.67792
 Alpha virt. eigenvalues --    2.70000   2.70851   2.72265   2.72691   2.75264
 Alpha virt. eigenvalues --    2.76159   2.77731   2.78500   2.80012   2.80740
 Alpha virt. eigenvalues --    2.81869   2.83262   2.84944   2.86637   2.86853
 Alpha virt. eigenvalues --    2.90437   2.95707   2.95959   2.98858   3.01996
 Alpha virt. eigenvalues --    3.03409   3.05431   3.06905   3.11518   3.12620
 Alpha virt. eigenvalues --    3.13989   3.15994   3.17080   3.20669   3.21870
 Alpha virt. eigenvalues --    3.24757   3.29576   3.32009   3.33218   3.35451
 Alpha virt. eigenvalues --    3.45244   3.53967   3.55544   3.63845   3.70654
 Alpha virt. eigenvalues --    3.75942   3.77550   3.83834   3.86567   4.05526
 Alpha virt. eigenvalues --    4.14839   4.15499   4.24112   4.26730   4.27969
 Alpha virt. eigenvalues --    4.28216   4.33089   4.39236   4.41315   4.44405
 Alpha virt. eigenvalues --    4.46720   4.47750   4.51488   4.52700   4.54908
 Alpha virt. eigenvalues --    4.55903   4.59718   4.64020   4.72123   4.77084
 Alpha virt. eigenvalues --    4.79285   4.81795   4.86109   5.21298   5.21459
 Alpha virt. eigenvalues --    5.26493   5.56952   5.67202   6.44822   6.51080
 Alpha virt. eigenvalues --   23.86156  24.11302  24.28833  38.23358  38.77433
          Condensed to atoms (all electrons):
               1          2          3          4          5          6
     1  C    5.654206  -0.046232   0.004364  -0.009236  -0.041357  -0.000137
     2  C   -0.046232   6.047258  -0.264007  -0.042027   0.122553   0.004724
     3  C    0.004364  -0.264007   6.664296   0.390544  -0.684212  -0.054694
     4  N   -0.009236  -0.042027   0.390544   7.709233   0.283432  -0.152125
     5  C   -0.041357   0.122553  -0.684212   0.283432   6.479447   0.738317
     6  O   -0.000137   0.004724  -0.054694  -0.152125   0.738317   8.215510
     7  N   -0.001328   0.008643  -0.189031  -0.433221   0.073587  -0.058681
     8  C   -0.008006   0.018494  -0.496948  -0.344552  -1.494730  -0.398185
     9  C    0.009009  -0.022001   0.348030   0.326323   1.426453   0.387058
    10  C   -0.005300   0.008964  -0.255714  -0.206847  -1.471422  -0.109836
    11  C   -0.000645   0.000390  -0.025857  -0.068316   0.091112   0.011829
    12  C    0.000191  -0.000084   0.015281   0.010284   0.211599  -0.021018
    13  C    0.000585  -0.000977   0.001816   0.027430  -0.374114  -0.024126
    14  H    0.419086  -0.086048   0.022509   0.000888  -0.001233   0.000003
    15  H    0.436997  -0.069587  -0.012445   0.000860  -0.007367  -0.000036
    16  H   -0.016950   0.406999  -0.076206   0.002385   0.002196  -0.000261
    17  H   -0.030282   0.402873  -0.069174   0.007478  -0.003869  -0.000050
    18  H    0.000264  -0.078134   0.416577  -0.064118   0.015906   0.000241
    19  H    0.006541  -0.046407   0.479368  -0.039345  -0.062349  -0.002214
    20  H    0.000284  -0.001622  -0.049120   0.200338   0.015822   0.002625
    21  H    0.000015  -0.000027   0.003426   0.001105   0.036262  -0.001283
    22  H   -0.000001   0.000002   0.000459   0.001153   0.019134   0.000039
    23  H    0.000000  -0.000000   0.000018   0.000018   0.002079  -0.000002
    24  N    0.000001  -0.000046  -0.000102   0.000387  -0.015233   0.003581
    25  H    0.000000   0.000000  -0.000000  -0.000005   0.000054   0.000003
    26  O   -0.000002   0.000027  -0.000460  -0.000598  -0.008999  -0.001459
    27  O    0.000000  -0.000001   0.000136   0.000062   0.005146   0.000063
    28  H    0.407256  -0.066515  -0.003083  -0.000163   0.008915  -0.000015
    29  H    0.000210  -0.000784   0.015746   0.040903  -0.002944   0.002910
    30  O    0.000182   0.000220   0.005437   0.008150  -0.002547   0.000129
    31  O   -0.000477   0.000801  -0.007254   0.023377   0.013362   0.000207
    32  C   -0.001372  -0.001569  -0.002787  -0.013527  -0.011487   0.000987
    33  C    0.000637   0.002416   0.000299  -0.004777  -0.017117  -0.000136
    34  C    0.000204  -0.001897   0.002094   0.001218  -0.001464  -0.000028
    35  H    0.000000   0.000000   0.000000  -0.000000  -0.000007  -0.000000
    36  H   -0.000000  -0.000006   0.000001  -0.000002  -0.000011  -0.000000
    37  H   -0.000002  -0.000003   0.000001  -0.000007   0.000006   0.000000
    38  H   -0.000000  -0.000001  -0.000002  -0.000000   0.000005   0.000000
    39  H    0.000002   0.000013  -0.000015  -0.000006   0.000001  -0.000000
               7          8          9         10         11         12
     1  C   -0.001328  -0.008006   0.009009  -0.005300  -0.000645   0.000191
     2  C    0.008643   0.018494  -0.022001   0.008964   0.000390  -0.000084
     3  C   -0.189031  -0.496948   0.348030  -0.255714  -0.025857   0.015281
     4  N   -0.433221  -0.344552   0.326323  -0.206847  -0.068316   0.010284
     5  C    0.073587  -1.494730   1.426453  -1.471422   0.091112   0.211599
     6  O   -0.058681  -0.398185   0.387058  -0.109836   0.011829  -0.021018
     7  N    7.874506   0.041978   0.027848   0.103917  -0.098557   0.054682
     8  C    0.041978  23.259582 -11.419928  -0.782255   3.311998  -4.523710
     9  C    0.027848 -11.419928  21.467263  -5.070788  -4.561721   1.999248
    10  C    0.103917  -0.782255  -5.070788  18.144166  -3.828822  -0.197353
    11  C   -0.098557   3.311998  -4.561721  -3.828822  13.358915  -1.849085
    12  C    0.054682  -4.523710   1.999248  -0.197353  -1.849085  12.504147
    13  C    0.036880  -1.636592   0.519838   0.135137  -0.321375  -2.897401
    14  H    0.000022  -0.000035  -0.000001   0.000001   0.000000   0.000000
    15  H    0.000008  -0.000314   0.000027  -0.000012   0.000000   0.000000
    16  H   -0.001090   0.002753  -0.000221   0.000004  -0.000032   0.000001
    17  H    0.001298  -0.003550   0.000470  -0.000266   0.000018   0.000004
    18  H   -0.002853   0.011394  -0.001175  -0.000038  -0.000142  -0.000004
    19  H    0.003281  -0.016975   0.001465  -0.000466   0.000109   0.000087
    20  H    0.030370  -0.004399   0.007826  -0.007909   0.000028   0.000228
    21  H   -0.013330  -0.069319   0.321065   0.006535  -0.028343   0.054033
    22  H   -0.021880   0.156291   0.075422  -0.012398   0.082337  -0.019743
    23  H    0.000346   0.014789   0.005001   0.019489   0.242988   0.058085
    24  N   -0.009892  -0.110704  -0.165068   0.027061  -0.007063   0.316096
    25  H   -0.000343   0.018014   0.020664  -0.003656  -0.059874   0.239881
    26  O    0.000437   0.323308  -0.054472  -0.023440  -0.009484   0.092047
    27  O   -0.000736   0.094871   0.031444   0.012003   0.181603  -0.098209
    28  H    0.000034   0.000252  -0.000006   0.000002  -0.000000   0.000000
    29  H    0.149938   0.068327   0.122251  -0.200633  -0.021130   0.000137
    30  O    0.022275   0.046714   0.036367  -0.027301  -0.046068  -0.001301
    31  O    0.004158  -0.001258   0.007103  -0.003177  -0.000016   0.000306
    32  C   -0.007244   0.004266   0.005869   0.018825  -0.030731  -0.001039
    33  C   -0.006831   0.029744  -0.000362  -0.024457  -0.010074  -0.001688
    34  C   -0.002053   0.004626   0.003620  -0.005453  -0.002615   0.000238
    35  H   -0.000007   0.000075   0.000008  -0.000064  -0.000031  -0.000002
    36  H   -0.000008   0.000068   0.000003  -0.000049  -0.000020  -0.000002
    37  H    0.000001   0.000002  -0.000000  -0.000000   0.000000  -0.000000
    38  H    0.000001  -0.000003  -0.000000   0.000003   0.000001   0.000000
    39  H    0.000002   0.000001  -0.000000  -0.000001  -0.000000  -0.000000
              13         14         15         16         17         18
     1  C    0.000585   0.419086   0.436997  -0.016950  -0.030282   0.000264
     2  C   -0.000977  -0.086048  -0.069587   0.406999   0.402873  -0.078134
     3  C    0.001816   0.022509  -0.012445  -0.076206  -0.069174   0.416577
     4  N    0.027430   0.000888   0.000860   0.002385   0.007478  -0.064118
     5  C   -0.374114  -0.001233  -0.007367   0.002196  -0.003869   0.015906
     6  O   -0.024126   0.000003  -0.000036  -0.000261  -0.000050   0.000241
     7  N    0.036880   0.000022   0.000008  -0.001090   0.001298  -0.002853
     8  C   -1.636592  -0.000035  -0.000314   0.002753  -0.003550   0.011394
     9  C    0.519838  -0.000001   0.000027  -0.000221   0.000470  -0.001175
    10  C    0.135137   0.000001  -0.000012   0.000004  -0.000266  -0.000038
    11  C   -0.321375   0.000000   0.000000  -0.000032   0.000018  -0.000142
    12  C   -2.897401   0.000000   0.000000   0.000001   0.000004  -0.000004
    13  C   11.798460  -0.000000   0.000001   0.000039  -0.000016   0.000277
    14  H   -0.000000   0.484908  -0.024858  -0.002793  -0.002910  -0.000064
    15  H    0.000001  -0.024858   0.487754  -0.004638   0.003987  -0.000521
    16  H    0.000039  -0.002793  -0.004638   0.496687  -0.038335   0.004245
    17  H   -0.000016  -0.002910   0.003987  -0.038335   0.526749  -0.005611
    18  H    0.000277  -0.000064  -0.000521   0.004245  -0.005611   0.512932
    19  H    0.000046  -0.000066   0.002198  -0.005370   0.003959  -0.037150
    20  H   -0.000329  -0.000001   0.000009  -0.000660   0.004879   0.000599
    21  H   -0.007068  -0.000000  -0.000000   0.000000  -0.000000   0.000000
    22  H   -0.010134   0.000000   0.000000  -0.000000   0.000000   0.000000
    23  H   -0.032572  -0.000000  -0.000000   0.000000  -0.000000   0.000000
    24  N   -0.411601   0.000000  -0.000000  -0.000000  -0.000000   0.000000
    25  H    0.111961   0.000000  -0.000000  -0.000000  -0.000000  -0.000000
    26  O   -0.402529  -0.000000   0.000000   0.000000   0.000000  -0.000000
    27  O   -0.317981   0.000000   0.000000  -0.000000   0.000000  -0.000000
    28  H    0.000001  -0.025272  -0.030115   0.003795  -0.004813   0.002892
    29  H   -0.000275  -0.000000   0.000000  -0.000002   0.000007  -0.000003
    30  O    0.000100   0.000000   0.000000   0.000013   0.000142  -0.000001
    31  O   -0.000194  -0.000009  -0.000005   0.000321   0.000582   0.000306
    32  C    0.000496  -0.000016  -0.000037  -0.000853   0.001153   0.000201
    33  C   -0.000792   0.000032  -0.000015   0.000636  -0.000950   0.000203
    34  C    0.000113  -0.000010   0.000003  -0.000131  -0.000395  -0.000023
    35  H   -0.000000  -0.000000   0.000000  -0.000000   0.000000  -0.000000
    36  H    0.000000  -0.000000   0.000000  -0.000000  -0.000000   0.000000
    37  H   -0.000000   0.000000  -0.000000   0.000000  -0.000002   0.000000
    38  H   -0.000000  -0.000000  -0.000000   0.000000  -0.000000   0.000000
    39  H   -0.000000   0.000000  -0.000000   0.000000  -0.000002   0.000000
              19         20         21         22         23         24
[...]
     6  O   -0.001345   0.006280  -0.002304   0.000032  -0.000001   0.003682
     7  N    0.003155   0.037751  -0.010439  -0.017804   0.000322  -0.011881
     8  C   -0.023710   0.005332  -0.074352   0.154372   0.008052   0.085577
     9  C    0.009002   0.013864   0.193905   0.077328   0.011413   0.662861
    10  C   -0.002279  -0.011638  -0.009905   0.019057   0.015698   0.080713
    11  C   -0.000074  -0.000589  -0.013152   0.063212   0.236855  -0.110961
    12  C    0.000140   0.000189   0.059138  -0.025086   0.071619  -0.021963
    13  C    0.000226   0.001946   0.134972  -0.002541  -0.035494  -1.067553
    14  H   -0.000064  -0.000001  -0.000000   0.000000  -0.000000   0.000000
    15  H    0.002100   0.000005  -0.000000  -0.000000   0.000000  -0.000000
    16  H   -0.005256  -0.000442   0.000000  -0.000000  -0.000000   0.000000
    17  H    0.003862   0.003910  -0.000000   0.000000   0.000000  -0.000000
    18  H   -0.036257   0.000990   0.000000  -0.000000  -0.000000   0.000001
    19  H    0.456764   0.003265  -0.000002   0.000000   0.000000  -0.000003
    20  H    0.003265   0.348090  -0.000001   0.000011  -0.000000   0.000000
    21  H   -0.000002  -0.000001   0.383624  -0.000093   0.000011  -0.026729
    22  H    0.000000   0.000011  -0.000093   0.514572  -0.003871  -0.000171
    23  H    0.000000  -0.000000   0.000011  -0.003871   0.476932   0.000198
    24  N   -0.000003   0.000000  -0.026729  -0.000171   0.000198   6.975575
    25  H   -0.000000  -0.000000  -0.000082  -0.000102  -0.002960  -0.033890
    26  O    0.000001   0.000000   0.014726   0.000005   0.000045   0.429779
    27  O    0.000000  -0.000000  -0.001606  -0.000000  -0.000020   0.371181
    28  H   -0.000145  -0.000005   0.000000  -0.000000   0.000000  -0.000000
    29  H    0.000008   0.004030  -0.000158   0.009832  -0.000015  -0.000026
              25         26         27         28         29
     1  C    0.000000  -0.000001   0.000000   0.397995  -0.000131
     2  C    0.000000   0.000026   0.000000  -0.057103   0.000447
     3  C    0.000002  -0.000242   0.000068  -0.003864   0.002233
     4  N   -0.000003  -0.000472   0.000035   0.000404   0.019099
     5  C    0.000519  -0.002833   0.001291   0.008993  -0.018495
     6  O    0.000004  -0.000850  -0.000025  -0.000013   0.004507
     7  N   -0.000203   0.001100  -0.000634   0.000043   0.233741
     8  C    0.016245   0.251409   0.064689   0.000259  -0.023386
     9  C    0.074111   0.133701  -0.298932  -0.000045   0.069062
    10  C   -0.019717  -0.024230  -0.043949   0.000015  -0.132104
    11  C   -0.067461  -0.013878   0.282718   0.000000   0.041834
    12  C    0.203139   0.111047  -0.000959  -0.000000  -0.002735
    13  C    0.120213  -0.542513  -0.094955  -0.000001   0.038042
    14  H    0.000000  -0.000000   0.000000  -0.025259  -0.000000
    15  H   -0.000000  -0.000000   0.000000  -0.030036   0.000000
    16  H   -0.000000  -0.000000  -0.000000   0.003770  -0.000002
    17  H   -0.000000  -0.000000   0.000000  -0.004689   0.000010
    18  H    0.000000  -0.000000  -0.000000   0.002798  -0.000002
    19  H   -0.000000   0.000001   0.000000  -0.000145   0.000008
    20  H   -0.000000   0.000000  -0.000000  -0.000005   0.004030
    21  H   -0.000082   0.014726  -0.001606   0.000000  -0.000158
    22  H   -0.000102   0.000005  -0.000000  -0.000000   0.009832
    23  H   -0.002960   0.000045  -0.000020   0.000000  -0.000015
    24  N   -0.033890   0.429779   0.371181  -0.000000  -0.000026
    25  H    0.436960  -0.002123   0.015261  -0.000000  -0.000000
    26  O   -0.002123   7.745766  -0.092268   0.000000   0.000006
    27  O    0.015261  -0.092268   7.835174  -0.000000  -0.000001
    28  H   -0.000000   0.000000  -0.000000   0.491717  -0.000000
    29  H   -0.000000   0.000006  -0.000001  -0.000000   0.351940
 Mulliken charges:
               1
     1  C   -0.740080
     2  C   -0.311628
     3  C   -0.137170
     4  N   -0.625976
     5  C    0.812164
     6  O   -0.570674
     7  N   -0.642494
     8  C    0.124591
     9  C    0.701839
    10  C   -1.036953
    11  C   -0.391797
    12  C    0.204715
    13  C   -0.348340
    14  H    0.215512
    15  H    0.217872
    16  H    0.227425
    17  H    0.202307
    18  H    0.219481
    19  H    0.251264
    20  H    0.391694
    21  H    0.323659
    22  H    0.193429
    23  H    0.218979
    24  N   -0.332063
    25  H    0.260086
    26  O   -0.008201
    27  O   -0.037068
    28  H    0.215165
    29  H    0.402262
    30  O    0.000000
    31  O    0.000000
    32  C    0.000000
    33  C    0.000000
    34  C    0.000000
    35  H    0.000000
    36  H    0.000000
    37  H    0.000000
    38  H    0.000000
    39  H    0.000000
 Sum of Mulliken charges =  -0.00000
 Mulliken charges with hydrogens summed into heavy atoms:
               1
     1  C   -0.091532
     2  C    0.118104
     3  C    0.333575
     4  N   -0.234282
     5  C    0.812164
     6  O   -0.570674
     7  N   -0.240232
     8  C    0.124591
     9  C    1.025498
    10  C   -0.843524
    11  C   -0.172818
    12  C    0.464801
    13  C   -0.348340
    24  N   -0.332063
    26  O   -0.008201
    27  O   -0.037068
    30  O    0.000000
    31  O    0.000000
    32  C    0.000000
    33  C    0.000000
    34  C    0.000000
         Mulliken charges condensed to fragments:
      1     -0.000000
      2      0.000000
 Electronic spatial extent (au):  <R**2>=           6809.1621
 Charge=             -0.0000 electrons
 Dipole moment (field-independent basis, Debye):
    X=             -8.4932    Y=             -4.6092    Z=             -0.2245  Tot=              9.6659
 Quadrupole moment (field-independent basis, Debye-Ang):
   XX=           -118.9494   YY=            -94.1660   ZZ=            -97.1981
   XY=            -18.3486   XZ=             -1.1665   YZ=             -0.3368
 Traceless Quadrupole moment (field-independent basis, Debye-Ang):
   XX=            -15.5116   YY=              9.2718   ZZ=              6.2397
   XY=            -18.3486   XZ=             -1.1665   YZ=             -0.3368
 Octapole moment (field-independent basis, Debye-Ang**2):
  XXX=           -553.7970  YYY=           -233.2418  ZZZ=              7.1189  XYY=           -126.0036
  XXY=           -114.8679  XXZ=             -2.5034  XZZ=           -103.7644  YZZ=            -62.1406
  YYZ=             -2.9733  XYZ=             -0.1546
 Hexadecapole moment (field-independent basis, Debye-Ang**3):
 XXXX=          -7997.6595 YYYY=          -2223.7148 ZZZZ=           -131.1340 XXXY=            458.6683
 XXXZ=            -44.7177 YYYX=            681.3237 YYYZ=            -17.3125 ZZZX=            -24.6884
 ZZZY=             -7.3132 XXYY=          -1456.7039 XXZZ=          -1114.9152 YYZZ=           -409.6794
 XXYZ=             -9.1862 YYXZ=            -11.7695 ZZXY=            293.5751
 N-N= 1.042471070562D+03 E-N=-3.897643843348D+03  KE= 7.717859705229D+02
 CPIOFr:  IOpCl= 0 IRwI=-1 IRwCP=  731 ICalc=  3 LCPTot=      296755 Len1MO=      765188 IndFrg=     3357507
 Counterpoise: doing MCBS calculation for fragment   2
 Basis read from rwf:  (6D, 7F)
 There are   105 symmetry adapted cartesian basis functions of A   symmetry.
 There are   105 symmetry adapted basis functions of A   symmetry.
   105 basis functions,   180 primitive gaussians,   105 cartesian basis functions
    20 alpha electrons       20 beta electrons
       nuclear repulsion energy       168.5459705341 Hartrees.
 NAtoms=   39 NActive=   10 NUniq=   10 SFac= 1.00D+00 NAtFMM=   60 NAOKFM=F Big=F
 Integral buffers will be    131072 words long.
 Raffenetti 2 integral format.
 Two-electron integral symmetry is turned on.
 One-electron integrals computed using PRISM.
 NBasis=   105 RedAO= T EigKep=  1.23D-04  NBF=   105
 NBsUse=   105 1.00D-06 EigRej= -1.00D+00 NBFU=   105
 ExpMin= 4.38D-02 ExpMax= 5.48D+03 ExpMxC= 8.25D+02 IAcc=3 IRadAn=         5 AccDes= 0.00D+00
 Harris functional with IExCor= 1009 and IRadAn=       5 diagonalized for initial guess.
 HarFok:  IExCor= 1009 AccDes= 0.00D+00 IRadAn=         5 IDoV= 1 UseB2=F ITyADJ=14
 ICtDFT=  3500011 ScaDFX=  1.000000  1.000000  1.000000  1.000000
 FoFCou: FMM=F IPFlag=           0 FMFlag=      100000 FMFlg1=           0
         NFxFlg=           0 DoJE=T BraDBF=F KetDBF=T FulRan=T
         wScrn=  0.000000 ICntrl=     500 IOpCl=  0 I1Cent=   200000004 NGrid=           0
         NMat0=    1 NMatS0=      1 NMatT0=    0 NMatD0=    1 NMtDS0=    0 NMtDT0=    0
 Petite list used in FoFCou.
 Keep R1 ints in memory in canonical form, NReq=16474032.
 Requested convergence on RMS density matrix=1.00D-08 within 128 cycles.
 Requested convergence on MAX density matrix=1.00D-06.
 Requested convergence on             energy=1.00D-06.
 No special actions if energy rises.
 SCF Done:  E(RM062X) =  -267.728501658     A.U. after   14 cycles
            NFock= 14  Conv=0.38D-08     -V/T= 2.0084

 **********************************************************************

            Population analysis using the SCF density.

 **********************************************************************

 Orbital symmetries:
       Occupied  (A) (A) (A) (A) (A) (A) (A) (A) (A) (A) (A) (A)
                 (A) (A) (A) (A) (A) (A) (A) (A)
       Virtual   (A) (A) (A) (A) (A) (A) (A) (A) (A) (A) (A) (A)
                 (A) (A) (A) (A) (A) (A) (A) (A) (A) (A) (A) (A)
                 (A) (A) (A) (A) (A) (A) (A) (A) (A) (A) (A) (A)
                 (A) (A) (A) (A) (A) (A) (A) (A) (A) (A) (A) (A)
                 (A) (A) (A) (A) (A) (A) (A) (A) (A) (A) (A) (A)
                 (A) (A) (A) (A) (A) (A) (A) (A) (A) (A) (A) (A)
                 (A) (A) (A) (A) (A) (A) (A) (A) (A) (A) (A) (A)
                 (A)
 The electronic state is 1-A.
 Alpha  occ. eigenvalues --  -19.38459 -19.37850 -10.43620 -10.38699 -10.37515
 Alpha  occ. eigenvalues --   -0.94254  -0.84519  -0.69926  -0.55992  -0.39507
 Alpha  occ. eigenvalues --   -0.36279  -0.33534  -0.30143  -0.27612  -0.27379
 Alpha  occ. eigenvalues --   -0.25041  -0.22662  -0.10887  -0.10883  -0.10135
 Alpha virt. eigenvalues --    0.14606   0.16488   0.18624   0.19557   0.21562
 Alpha virt. eigenvalues --    0.21841   0.22430   0.22873   0.23451   0.25918
 Alpha virt. eigenvalues --    0.28395   0.29733   0.30032   0.37982   0.38885
 Alpha virt. eigenvalues --    0.42274   0.42483   0.43633   0.45449   0.46284
 Alpha virt. eigenvalues --    0.46759   0.48016   0.49553   0.49761   0.50798
 Alpha virt. eigenvalues --    0.55080   0.56065   0.57255   0.71422   0.75507
 Alpha virt. eigenvalues --    0.84439   0.86607   0.89585   0.92066   0.94775
 Alpha virt. eigenvalues --    0.99435   1.01992   1.08475   1.10011   1.14577
 Alpha virt. eigenvalues --    1.20061   1.21305   1.31135   1.32709   1.34101
 Alpha virt. eigenvalues --    1.34605   1.49192   1.54773   1.57839   1.59063
 Alpha virt. eigenvalues --    1.61086   1.63264   1.63273   1.74383   1.78215
 Alpha virt. eigenvalues --    1.80775   1.86875   2.02483   2.02671   2.08642
 Alpha virt. eigenvalues --    2.09982   2.12082   2.14387   2.16595   2.22650
 Alpha virt. eigenvalues --    2.26509   2.28207   2.29480   2.45080   2.52360
 Alpha virt. eigenvalues --    2.54089   2.54279   2.73477   2.74095   2.78562
 Alpha virt. eigenvalues --    2.97736   3.13212   3.27440   3.32546   3.42484
 Alpha virt. eigenvalues --    4.36349   4.41510   4.58154   4.67165   4.82369
          Condensed to atoms (all electrons):
               1          2          3          4          5          6
     1  O    8.622334  -0.169156   0.530412  -0.393106   0.080799  -0.003129
     2  O   -0.169156   8.591320   0.458957  -0.322610   0.097790   0.001313
     3  C    0.530412   0.458957   4.833812  -0.357729   0.051047  -0.015268
     4  C   -0.393106  -0.322610  -0.357729   7.546138  -0.658206   0.389461
     5  C    0.080799   0.097790   0.051047  -0.658206   6.040998  -0.056285
     6  H   -0.003129   0.001313  -0.015268   0.389461  -0.056285   0.529652
     7  H   -0.003128   0.001286  -0.015329   0.389498  -0.056233  -0.032450
     8  H   -0.000098  -0.006529  -0.002678  -0.048534   0.411018  -0.004349
     9  H   -0.000324   0.002782   0.012022  -0.058834   0.377890  -0.002024
    10  H   -0.000100  -0.006535  -0.002586  -0.048627   0.411044   0.003870
               7          8          9         10
     1  O   -0.003128  -0.000098  -0.000324  -0.000100
     2  O    0.001286  -0.006529   0.002782  -0.006535
     3  C   -0.015329  -0.002678   0.012022  -0.002586
     4  C    0.389498  -0.048534  -0.058834  -0.048627
     5  C   -0.056233   0.411018   0.377890   0.411044
     6  H   -0.032450  -0.004349  -0.002024   0.003870
     7  H    0.529630   0.003870  -0.002024  -0.004348
     8  H    0.003870   0.499552  -0.033758  -0.025823
     9  H   -0.002024  -0.033758   0.588115  -0.033752
    10  H   -0.004348  -0.025823  -0.033752   0.499429
 Mulliken charges:
               1
     1  C    0.000000
     2  C    0.000000
     3  C    0.000000
     4  N    0.000000
     5  C    0.000000
     6  O    0.000000
     7  N    0.000000
     8  C    0.000000
     9  C    0.000000
    10  C    0.000000
    11  C    0.000000
    12  C    0.000000
    13  C    0.000000
    14  H    0.000000
    15  H    0.000000
    16  H    0.000000
    17  H    0.000000
    18  H    0.000000
    19  H    0.000000
    20  H    0.000000
    21  H    0.000000
    22  H    0.000000
    23  H    0.000000
    24  N    0.000000
    25  H    0.000000
    26  O    0.000000
    27  O    0.000000
    28  H    0.000000
    29  H    0.000000
    30  O   -0.664505
    31  O   -0.648618
    32  C    0.507339
    33  C   -0.437453
    34  C   -0.699862
    35  H    0.189208
    36  H    0.189227
    37  H    0.207329
    38  H    0.149907
    39  H    0.207427
 Sum of Mulliken charges =  -1.00000
 Mulliken charges with hydrogens summed into heavy atoms:
               1
     1  C    0.000000
     2  C    0.000000
     3  C    0.000000
     4  N    0.000000
     5  C    0.000000
     6  O    0.000000
     7  N    0.000000
     8  C    0.000000
     9  C    0.000000
    10  C    0.000000
    11  C    0.000000
    12  C    0.000000
    13  C    0.000000
    24  N    0.000000
    26  O    0.000000
    27  O    0.000000
    30  O   -0.664505
    31  O   -0.648618
    32  C    0.507339
    33  C   -0.059017
    34  C   -0.135199
         Mulliken charges condensed to fragments:
      1      0.000000
      2     -1.000000
 Electronic spatial extent (au):  <R**2>=           2828.0212
 Charge=             -1.0000 electrons
 Dipole moment (field-independent basis, Debye):
    X=             11.8983    Y=              7.1846    Z=             -0.0376  Tot=             13.8993
 Quadrupole moment (field-independent basis, Debye-Ang):
   XX=            -72.4155   YY=            -49.4608   ZZ=            -32.5408
   XY=            -15.5409   XZ=              1.3680   YZ=             -0.6481
 Traceless Quadrupole moment (field-independent basis, Debye-Ang):
   XX=            -20.9431   YY=              2.0116   ZZ=             18.9316
   XY=            -15.5409   XZ=              1.3680   YZ=             -0.6481
 Octapole moment (field-independent basis, Debye-Ang**2):
  XXX=            503.4994  YYY=            278.0616  ZZZ=             -4.7857  XYY=            152.7772
  XXY=            132.9455  XXZ=             -9.3009  XZZ=            112.2605  YZZ=             75.3894
  YYZ=              0.4204  XYZ=             -0.8406
 Hexadecapole moment (field-independent basis, Debye-Ang**3):
 XXXX=          -3480.3014 YYYY=          -1428.5123 ZZZZ=            -53.4773 XXXY=          -1123.7454
 XXXZ=             67.4469 YYYX=           -970.7182 YYYZ=              4.9396 ZZZX=             29.9475
 ZZZY=             10.1117 XXYY=           -825.2221 XXZZ=           -458.0874 YYZZ=           -217.8821
 XXYZ=             14.2356 YYXZ=             11.0302 ZZXY=           -275.0974
 N-N= 1.685459705341D+02 E-N=-9.724331741601D+02  KE= 2.654893226495D+02
 CPIOFr:  IOpCl= 0 IRwI=-1 IRwCP=  731 ICalc=  4 LCPTot=      296755 Len1MO=      765188 IndFrg=     4122695
 CPIOFr:  IOpCl= 0 IRwI=-2 IRwCP=  731 ICalc=  0 LCPTot=      296755 Len1MO=      765188 IndFrg=     1061943
 Counterpoise corrected energy =   -1046.251802006025
                   BSSE energy =       0.001704898682
               sum of monomers =   -1046.171732533876
           complexation energy =     -51.31 kcal/mole (raw)
           complexation energy =     -50.24 kcal/mole (corrected)
 1\1\GINC-R3713\SP\RM062X\Gen\C13H18N3O5(1-)\ROOT\22-Feb-2019\0\\# M062
 X/Gen 6D SCF=Tight INT(grid=ultrafine) Counterpoise=2 maxdisk=67108864
 0\\3Nitro_EtO.M062X_6-31pGd_bsse\\-1,1\C,0,11.8422003791,-0.0093140006
 ,-7.406870633\C,0,10.866875673,-0.2318581274,-6.253193625\C,0,10.48961
 59427,1.0798747015,-5.5720591867\N,0,9.5200365692,0.8350186116,-4.5296
 969509\C,0,9.2943101649,1.7621778254,-3.5657444579\O,0,9.9438561715,2.
 8043935511,-3.4554937513\N,0,8.2612192768,1.4017353285,-2.7120670116\C
 ,0,7.7880355122,2.1113103946,-1.6285846348\C,0,8.3061095686,3.34239839
 82,-1.1871598669\C,0,6.7052929987,1.5390966883,-0.9242337145\C,0,6.157
 3847307,2.1729664624,0.1819231382\C,0,6.6564138272,3.3935457161,0.6343
 305718\C,0,7.7213752671,3.9360589324,-0.0743008182\H,0,12.1197804264,-
 0.9548649909,-7.8843047081\H,0,12.7625793791,0.4739804664,-7.057614449
 2\H,0,11.3071846469,-0.9021764164,-5.5050485334\H,0,9.9560552247,-0.72
 72056827,-6.6105623226\H,0,10.0940713387,1.7866319967,-6.3205037311\H,
 0,11.3714738271,1.5556864862,-5.1279192856\H,0,8.8748597608,0.03416122
 78,-4.6465636567\H,0,9.1341421411,3.8087168447,-1.7022744142\H,0,6.313
 6035437,0.5871695606,-1.2763731265\H,0,5.3250312091,1.7077709394,0.702
 4495606\N,0,8.2663634102,5.2261437734,0.3867433337\H,0,6.2472087104,3.
 9083488466,1.4938473978\O,0,9.2040663202,5.7105989572,-0.22163442\O,0,
 7.7473769434,5.750323776,1.3639245924\H,0,11.4008771952,0.6362531285,-
 8.1753604744\H,0,7.7653037491,0.5044412784,-2.9017459185\O,0,6.7768482
 391,-0.91642851,-3.0355757571\O,0,7.827446644,-1.3935625599,-4.9625682
 393\C,0,6.9752745343,-1.6158633805,-4.0681978032\C,0,6.0746158144,-2.8
 526776643,-4.220596633\C,0,6.3410901161,-3.6716931353,-5.4774035516\H,
 0,5.0360703091,-2.5002365146,-4.1914253422\H,0,6.2075942576,-3.4606871
 87,-3.3171035449\H,0,6.1991567076,-3.0600853105,-6.3731270158\H,0,5.67
 28574534,-4.539762253,-5.5356934326\H,0,7.3761520165,-4.0250581587,-5.
 4947975836\\Version=ES64L-G09RevE.01\State=1-A\HF=-267.7285017\RMSD=3.
 820e-09\Dipole=-0.3526007,-0.9378964,-0.2803204\Quadrupole=16.0157337,
 -18.4232951,2.4075614,-9.4981782,-1.1398482,-24.0434363\PG=C01 [X(C13H
 18N3O5)]\\@


 THE MOLECULE ALSO HAS A BODY.  WHEN THIS BODY IS HIT, THE MOLECULE
 FEELS HURT ALL OVER -- A. KITAIGORODSKI
 Job cpu time:       0 days  1 hours 33 minutes 41.6 seconds.
 File lengths (MBytes):  RWF=    156 Int=      0 D2E=      0 Chk=     43 Scr=      1
 Normal termination of Gaussian 09 at Fri Feb 22 21:24:57 2019.
WARNING: pbs_rusage is deprecated and values produced may not be accurate


=============================================================================
                                     Resource usage:
                                       CPU time:              01:21:37
   JobId:    6018612.r-man2            Elapsed time:          00:22:15
   Project:             q95            Requested time:        48:00:00
   Service Units:      1.48 
                                       Max physical memory:      147MB
                                       Max virtual memory:       379MB
                                       Requested memory:           0MB

                                       Number of cpus:               4

                                       Max jobfs disk use:       0.2GB
                                       Requested jobfs:          5.0GB
=============================================================================

