 Entering Gaussian System, Link 0=/apps/gaussian/g09e01/g09/g09
 AtFile(1): /home/507/hio507/Basis/6-31pGd.gbs
 Initial command:
 /apps/gaussian/g09e01/g09/l1.exe "/jobfs/local/5912522.r-man2/Gau-56970.inp" -scrdir="/jobfs/local/5912522.r-man2/"
 Entering Link 1 = /apps/gaussian/g09e01/g09/l1.exe PID=     56971.
  
 Copyright (c) 1988,1990,1992,1993,1995,1998,2003,2009,2015,
            Gaussian, Inc.  All Rights Reserved.
  
 This is part of the Gaussian(R) 09 program.  It is based on
 the Gaussian(R) 03 system (copyright 2003, Gaussian, Inc.),
 the Gaussian(R) 98 system (copyright 1998, Gaussian, Inc.),
 the Gaussian(R) 94 system (copyright 1995, Gaussian, Inc.),
 the Gaussian 92(TM) system (copyright 1992, Gaussian, Inc.),
 the Gaussian 90(TM) system (copyright 1990, Gaussian, Inc.),
 the Gaussian 88(TM) system (copyright 1988, Gaussian, Inc.),
 the Gaussian 86(TM) system (copyright 1986, Carnegie Mellon
 University), and the Gaussian 82(TM) system (copyright 1983,
 Carnegie Mellon University). Gaussian is a federally registered
 trademark of Gaussian, Inc.
  
 This software contains proprietary and confidential information,
 including trade secrets, belonging to Gaussian, Inc.
  
 This software is provided under written license and may be
 used, copied, transmitted, or stored only in accord with that
 written license.
  
 The following legend is applicable only to US Government
 contracts under FAR:
  
                    RESTRICTED RIGHTS LEGEND
  
 Use, reproduction and disclosure by the US Government is
 subject to restrictions as set forth in subparagraphs (a)
 and (c) of the Commercial Computer Software - Restricted
 Rights clause in FAR 52.227-19.
  
 Gaussian, Inc.
 340 Quinnipiac St., Bldg. 40, Wallingford CT 06492
  
  
 ---------------------------------------------------------------
 Warning -- This program may not be used in any manner that
 competes with the business of Gaussian, Inc. or will provide
 assistance to any competitor of Gaussian, Inc.  The licensee
 of this program is prohibited from giving any competitor of
 Gaussian, Inc. access to this program.  By using this program,
 the user acknowledges that Gaussian, Inc. is engaged in the
 business of creating and licensing software in the field of
 computational chemistry and represents and warrants to the
 licensee that it is not a competitor of Gaussian, Inc. and that
 it will not use this program in any manner prohibited above.
 ---------------------------------------------------------------
  

 Cite this work as:
 Gaussian 09, Revision E.01,
 M. J. Frisch, G. W. Trucks, H. B. Schlegel, G. E. Scuseria, 
 M. A. Robb, J. R. Cheeseman, G. Scalmani, V. Barone, B. Mennucci, 
 G. A. Petersson, H. Nakatsuji, M. Caricato, X. Li, H. P. Hratchian, 
 A. F. Izmaylov, J. Bloino, G. Zheng, J. L. Sonnenberg, M. Hada, 
 M. Ehara, K. Toyota, R. Fukuda, J. Hasegawa, M. Ishida, T. Nakajima, 
 Y. Honda, O. Kitao, H. Nakai, T. Vreven, J. A. Montgomery, Jr., 
 J. E. Peralta, F. Ogliaro, M. Bearpark, J. J. Heyd, E. Brothers, 
 K. N. Kudin, V. N. Staroverov, T. Keith, R. Kobayashi, J. Normand, 
 K. Raghavachari, A. Rendell, J. C. Burant, S. S. Iyengar, J. Tomasi, 
 M. Cossi, N. Rega, J. M. Millam, M. Klene, J. E. Knox, J. B. Cross, 
 V. Bakken, C. Adamo, J. Jaramillo, R. Gomperts, R. E. Stratmann, 
 O. Yazyev, A. J. Austin, R. Cammi, C. Pomelli, J. W. Ochterski, 
 R. L. Martin, K. Morokuma, V. G. Zakrzewski, G. A. Voth, 
 P. Salvador, J. J. Dannenberg, S. Dapprich, A. D. Daniels, 
 O. Farkas, J. B. Foresman, J. V. Ortiz, J. Cioslowski, 
 and D. J. Fox, Gaussian, Inc., Wallingford CT, 2013.
 
 ******************************************
 Gaussian 09:  ES64L-G09RevE.01 30-Nov-2015
                20-Feb-2019 
 ******************************************
 %chk=3Nitro_EtO.M062X_6-31pGd_opt_Pentadecane.chk
 %mem=196608000
 %nproc=8
 Will use up to    8 processors via shared memory.
 ----------------------------------------------------------------------
 # M062X/Gen 6D SCF=Tight INT(grid=ultrafine) OPT IOP(2/17=4) SCRF=(SMD
 ,Solvent=n-Pentadecane) maxdisk=2684354560
 ----------------------------------------------------------------------
 1/14=-1,18=20,19=15,26=4,38=1/1,3;
 2/9=110,12=2,17=4,18=5,40=1/2;
 3/5=7,8=2,11=2,16=1,25=1,30=1,70=32201,71=1,72=151,74=-55,75=-5/1,2,3;
 4//1;
 5/5=2,32=2,38=5,53=151/2;
 6/7=2,8=2,9=2,10=2,28=1/1;
 7//1,2,3,16;
 1/14=-1,18=20,19=15,26=4/3(2);
 2/9=110,17=4/2;
 99//99;
 2/9=110,17=4/2;
 3/5=7,6=1,8=2,11=2,16=1,25=1,30=1,70=32205,71=1,72=151,74=-55,75=-5,82=7/1,2,3;
 4/5=5,16=3,69=1/1;
 5/5=2,32=2,38=5,53=151/2;
 7//1,2,3,16;
 1/14=-1,18=20,19=15,26=4/3(-5);
 2/9=110,17=4/2;
 6/7=2,8=2,9=2,10=2,19=2,28=1/1;
 99/9=1/99;
 ----------------------------------------
 3Nitro_EtO.M062X_6-31pGd_opt_Pentadecane
 ----------------------------------------
 Symbolic Z-matrix:
 Charge = -1 Multiplicity = 1
 C                     11.79463   0.04662  -7.42709 
 C                     10.65178  -0.12471  -6.43145 
 C                     10.63532   1.00885  -5.41601 
 N                     9.54021   0.82979  -4.47399 
 C                     9.3235    1.72488  -3.49083 
 O                     10.04678   2.72588  -3.32634 
 N                     8.24115   1.43382  -2.68661 
 C                     7.773     2.16032  -1.59523 
 C                     8.26612   3.41017  -1.20233 
 C                     6.7194    1.58637  -0.85653 
 C                     6.17338   2.23353   0.24337 
 C                     6.65524   3.4754    0.65326 
 C                     7.69119   4.02017  -0.09163 
 H                     11.80755  -0.76946  -8.15571 
 H                     12.76281   0.05594  -6.91412 
 H                     10.75227  -1.08169  -5.90461 
 H                     9.69186  -0.14979  -6.96194 
 H                     10.52703   1.97092  -5.93263 
 H                     11.58824   1.03781  -4.87327 
 H                     8.90465   0.03191  -4.60466 
 H                     9.06576   3.89446  -1.74068 
 H                     6.33275   0.61777  -1.16103 
 H                     5.36342   1.76387   0.79186 
 N                     8.22093   5.32746   0.31159 
 H                     6.24464   3.99296   1.51107 
 O                     9.14728   5.80664  -0.32622 
 O                     7.71345   5.88797   1.27296 
 H                     11.69626   0.98874  -7.97782 
 H                     7.74578   0.5471   -2.87548 
 O                     6.81109  -1.00513  -3.09363 
 O                     7.86309  -1.47447  -5.0091 
 C                     7.0024   -1.72607  -4.12112 
 C                     6.12305  -2.96558  -4.2582 
 C                     6.37856  -3.80902  -5.49909 
 H                     5.08198  -2.622    -4.22966 
 H                     6.26762  -3.56004  -3.34801 
 H                     6.20849  -3.2312   -6.41285 
 H                     5.70866  -4.67446  -5.51703 
 H                     7.40851  -4.17839  -5.52182 
 
 Add virtual bond connecting atoms O30        and H29        Dist= 3.45D+00.
 Add virtual bond connecting atoms O31        and H20        Dist= 3.54D+00.

 GradGradGradGradGradGradGradGradGradGradGradGradGradGradGradGradGradGrad
 Berny optimization.
 Initialization pass.
                           ----------------------------
                           !    Initial Parameters    !
                           ! (Angstroms and Degrees)  !
 --------------------------                            --------------------------
 ! Name  Definition              Value          Derivative Info.                !
 --------------------------------------------------------------------------------
 ! R1    R(1,2)                  1.5254         estimate D2E/DX2                !
 ! R2    R(1,14)                 1.0941         estimate D2E/DX2                !
 ! R3    R(1,15)                 1.0957         estimate D2E/DX2                !
 ! R4    R(1,28)                 1.0957         estimate D2E/DX2                !
 ! R5    R(2,3)                  1.522          estimate D2E/DX2                !
 ! R6    R(2,16)                 1.097          estimate D2E/DX2                !
 ! R7    R(2,17)                 1.097          estimate D2E/DX2                !
 ! R8    R(3,4)                  1.4556         estimate D2E/DX2                !
 ! R9    R(3,18)                 1.0974         estimate D2E/DX2                !
 ! R10   R(3,19)                 1.097          estimate D2E/DX2                !
 ! R11   R(4,5)                  1.3471         estimate D2E/DX2                !
 ! R12   R(4,20)                 1.0284         estimate D2E/DX2                !
 ! R13   R(5,6)                  1.2459         estimate D2E/DX2                !
 ! R14   R(5,7)                  1.3795         estimate D2E/DX2                !
 ! R15   R(7,8)                  1.3921         estimate D2E/DX2                !
 ! R16   R(7,29)                 1.0331         estimate D2E/DX2                !
 ! R17   R(8,9)                  1.3999         estimate D2E/DX2                !
 ! R18   R(8,10)                 1.409          estimate D2E/DX2                !
 ! R19   R(9,13)                 1.3915         estimate D2E/DX2                !
 ! R20   R(9,21)                 1.0788         estimate D2E/DX2                !
 ! R21   R(10,11)                1.3881         estimate D2E/DX2                !
 ! R22   R(10,22)                1.0865         estimate D2E/DX2                !
 ! R23   R(11,12)                1.3937         estimate D2E/DX2                !
 ! R24   R(11,23)                1.0851         estimate D2E/DX2                !
 ! R25   R(12,13)                1.3874         estimate D2E/DX2                !
 ! R26   R(12,25)                1.0827         estimate D2E/DX2                !
 ! R27   R(13,24)                1.467          estimate D2E/DX2                !
 ! R28   R(20,31)                1.8755         estimate D2E/DX2                !
 ! R29   R(24,26)                1.2225         estimate D2E/DX2                !
 ! R30   R(24,27)                1.2231         estimate D2E/DX2                !
 ! R31   R(29,30)                1.825          estimate D2E/DX2                !
 ! R32   R(30,32)                1.2697         estimate D2E/DX2                !
 ! R33   R(31,32)                1.262          estimate D2E/DX2                !
 ! R34   R(32,33)                1.5259         estimate D2E/DX2                !
 ! R35   R(33,34)                1.522          estimate D2E/DX2                !
 ! R36   R(33,35)                1.0967         estimate D2E/DX2                !
 ! R37   R(33,36)                1.0967         estimate D2E/DX2                !
 ! R38   R(34,37)                1.0944         estimate D2E/DX2                !
 ! R39   R(34,38)                1.0946         estimate D2E/DX2                !
 ! R40   R(34,39)                1.0944         estimate D2E/DX2                !
 ! A1    A(2,1,14)             111.0851         estimate D2E/DX2                !
 ! A2    A(2,1,15)             110.941          estimate D2E/DX2                !
 ! A3    A(2,1,28)             110.9397         estimate D2E/DX2                !
 ! A4    A(14,1,15)            107.9196         estimate D2E/DX2                !
 ! A5    A(14,1,28)            107.919          estimate D2E/DX2                !
 ! A6    A(15,1,28)            107.8977         estimate D2E/DX2                !
 ! A7    A(1,2,3)              111.0961         estimate D2E/DX2                !
 ! A8    A(1,2,16)             110.0483         estimate D2E/DX2                !
 ! A9    A(1,2,17)             110.0301         estimate D2E/DX2                !
 ! A10   A(3,2,16)             109.2873         estimate D2E/DX2                !
 ! A11   A(3,2,17)             109.2808         estimate D2E/DX2                !
 ! A12   A(16,2,17)            107.004          estimate D2E/DX2                !
 ! A13   A(2,3,4)              110.3836         estimate D2E/DX2                !
 ! A14   A(2,3,18)             109.8738         estimate D2E/DX2                !
 ! A15   A(2,3,19)             109.8987         estimate D2E/DX2                !
 ! A16   A(4,3,18)             109.7722         estimate D2E/DX2                !
 ! A17   A(4,3,19)             109.6689         estimate D2E/DX2                !
 ! A18   A(18,3,19)            107.1869         estimate D2E/DX2                !
 ! A19   A(3,4,5)              120.7717         estimate D2E/DX2                !
 ! A20   A(3,4,20)             118.5659         estimate D2E/DX2                !
 ! A21   A(5,4,20)             120.5844         estimate D2E/DX2                !
 ! A22   A(4,5,6)              122.467          estimate D2E/DX2                !
 ! A23   A(4,5,7)              114.2997         estimate D2E/DX2                !
 ! A24   A(6,5,7)              123.2329         estimate D2E/DX2                !
 ! A25   A(5,7,8)              127.6459         estimate D2E/DX2                !
 ! A26   A(5,7,29)             116.7898         estimate D2E/DX2                !
 ! A27   A(8,7,29)             115.4665         estimate D2E/DX2                !
 ! A28   A(7,8,9)              124.576          estimate D2E/DX2                !
 ! A29   A(7,8,10)             116.7374         estimate D2E/DX2                !
 ! A30   A(9,8,10)             118.6829         estimate D2E/DX2                !
 ! A31   A(8,9,13)             118.0265         estimate D2E/DX2                !
 ! A32   A(8,9,21)             121.4568         estimate D2E/DX2                !
 ! A33   A(13,9,21)            120.5165         estimate D2E/DX2                !
 ! A34   A(8,10,11)            121.3106         estimate D2E/DX2                !
 ! A35   A(8,10,22)            118.8387         estimate D2E/DX2                !
 ! A36   A(11,10,22)           119.8507         estimate D2E/DX2                !
 ! A37   A(10,11,12)           120.8288         estimate D2E/DX2                !
 ! A38   A(10,11,23)           119.4961         estimate D2E/DX2                !
 ! A39   A(12,11,23)           119.6748         estimate D2E/DX2                !
 ! A40   A(11,12,13)           116.7524         estimate D2E/DX2                !
 ! A41   A(11,12,25)           121.8588         estimate D2E/DX2                !
 ! A42   A(13,12,25)           121.3888         estimate D2E/DX2                !
 ! A43   A(9,13,12)            124.3977         estimate D2E/DX2                !
 ! A44   A(9,13,24)            117.4411         estimate D2E/DX2                !
 ! A45   A(12,13,24)           118.1611         estimate D2E/DX2                !
 ! A46   A(13,24,26)           118.6524         estimate D2E/DX2                !
 ! A47   A(13,24,27)           118.3327         estimate D2E/DX2                !
 ! A48   A(26,24,27)           123.0148         estimate D2E/DX2                !
 ! A49   A(29,30,32)           120.1658         estimate D2E/DX2                !
 ! A50   A(20,31,32)           112.7767         estimate D2E/DX2                !
 ! A51   A(30,32,31)           123.9857         estimate D2E/DX2                !
 ! A52   A(30,32,33)           116.5577         estimate D2E/DX2                !
 ! A53   A(31,32,33)           119.4565         estimate D2E/DX2                !
 ! A54   A(32,33,34)           115.255          estimate D2E/DX2                !
 ! A55   A(32,33,35)           106.8719         estimate D2E/DX2                !
 ! A56   A(32,33,36)           106.845          estimate D2E/DX2                !
 ! A57   A(34,33,35)           110.7445         estimate D2E/DX2                !
 ! A58   A(34,33,36)           110.7405         estimate D2E/DX2                !
 ! A59   A(35,33,36)           105.8644         estimate D2E/DX2                !
 ! A60   A(33,34,37)           111.2259         estimate D2E/DX2                !
 ! A61   A(33,34,38)           110.4127         estimate D2E/DX2                !
 ! A62   A(33,34,39)           111.2205         estimate D2E/DX2                !
 ! A63   A(37,34,38)           107.9784         estimate D2E/DX2                !
 ! A64   A(37,34,39)           107.884          estimate D2E/DX2                !
 ! A65   A(38,34,39)           107.9855         estimate D2E/DX2                !
 ! A66   L(4,20,31,1,-1)       173.5852         estimate D2E/DX2                !
 ! A67   L(7,29,30,1,-1)       184.0202         estimate D2E/DX2                !
 ! A68   L(4,20,31,1,-2)       180.0435         estimate D2E/DX2                !
 ! A69   L(7,29,30,1,-2)       179.1585         estimate D2E/DX2                !
 ! D1    D(14,1,2,3)           179.8827         estimate D2E/DX2                !
 ! D2    D(14,1,2,16)           58.7077         estimate D2E/DX2                !
 ! D3    D(14,1,2,17)          -58.9626         estimate D2E/DX2                !
 ! D4    D(15,1,2,3)            59.8408         estimate D2E/DX2                !
 ! D5    D(15,1,2,16)          -61.3342         estimate D2E/DX2                !
 ! D6    D(15,1,2,17)         -179.0045         estimate D2E/DX2                !
 ! D7    D(28,1,2,3)           -60.0771         estimate D2E/DX2                !
 ! D8    D(28,1,2,16)          178.7479         estimate D2E/DX2                !
 ! D9    D(28,1,2,17)           61.0776         estimate D2E/DX2                !
 ! D10   D(1,2,3,4)           -179.9726         estimate D2E/DX2                !
 ! D11   D(1,2,3,18)            58.826          estimate D2E/DX2                !
 ! D12   D(1,2,3,19)           -58.884          estimate D2E/DX2                !
 ! D13   D(16,2,3,4)           -58.352          estimate D2E/DX2                !
 ! D14   D(16,2,3,18)         -179.5534         estimate D2E/DX2                !
 ! D15   D(16,2,3,19)           62.7367         estimate D2E/DX2                !
 ! D16   D(17,2,3,4)            58.4338         estimate D2E/DX2                !
 ! D17   D(17,2,3,18)          -62.7675         estimate D2E/DX2                !
 ! D18   D(17,2,3,19)          179.5225         estimate D2E/DX2                !
 ! D19   D(2,3,4,5)           -179.3107         estimate D2E/DX2                !
 ! D20   D(2,3,4,20)            -2.5039         estimate D2E/DX2                !
 ! D21   D(18,3,4,5)           -58.049          estimate D2E/DX2                !
 ! D22   D(18,3,4,20)          118.7578         estimate D2E/DX2                !
 ! D23   D(19,3,4,5)            59.4639         estimate D2E/DX2                !
 ! D24   D(19,3,4,20)         -123.7293         estimate D2E/DX2                !
 ! D25   D(3,4,5,6)             -1.0165         estimate D2E/DX2                !
 ! D26   D(3,4,5,7)            179.1969         estimate D2E/DX2                !
 ! D27   D(20,4,5,6)          -177.7587         estimate D2E/DX2                !
 ! D28   D(20,4,5,7)             2.4546         estimate D2E/DX2                !
 ! D29   D(3,4,31,32)          172.5699         estimate D2E/DX2                !
 ! D30   D(5,4,31,32)          -10.7192         estimate D2E/DX2                !
 ! D31   D(4,5,7,8)            179.7318         estimate D2E/DX2                !
 ! D32   D(4,5,7,29)             3.5168         estimate D2E/DX2                !
 ! D33   D(6,5,7,8)             -0.053          estimate D2E/DX2                !
 ! D34   D(6,5,7,29)          -176.268          estimate D2E/DX2                !
 ! D35   D(5,7,8,9)              6.5063         estimate D2E/DX2                !
 ! D36   D(5,7,8,10)          -174.2067         estimate D2E/DX2                !
 ! D37   D(29,7,8,9)          -177.2361         estimate D2E/DX2                !
 ! D38   D(29,7,8,10)            2.051          estimate D2E/DX2                !
 ! D39   D(5,7,30,32)          -11.4966         estimate D2E/DX2                !
 ! D40   D(8,7,30,32)          172.3748         estimate D2E/DX2                !
 ! D41   D(7,8,9,13)           179.6271         estimate D2E/DX2                !
 ! D42   D(7,8,9,21)            -0.1918         estimate D2E/DX2                !
 ! D43   D(10,8,9,13)            0.3529         estimate D2E/DX2                !
 ! D44   D(10,8,9,21)         -179.466          estimate D2E/DX2                !
 ! D45   D(7,8,10,11)         -179.5046         estimate D2E/DX2                !
 ! D46   D(7,8,10,22)            0.4886         estimate D2E/DX2                !
 ! D47   D(9,8,10,11)           -0.1737         estimate D2E/DX2                !
 ! D48   D(9,8,10,22)          179.8195         estimate D2E/DX2                !
 ! D49   D(8,9,13,12)           -0.2641         estimate D2E/DX2                !
 ! D50   D(8,9,13,24)          179.7912         estimate D2E/DX2                !
 ! D51   D(21,9,13,12)         179.5565         estimate D2E/DX2                !
 ! D52   D(21,9,13,24)          -0.3881         estimate D2E/DX2                !
 ! D53   D(8,10,11,12)          -0.1212         estimate D2E/DX2                !
 ! D54   D(8,10,11,23)        -179.9205         estimate D2E/DX2                !
 ! D55   D(22,10,11,12)        179.8857         estimate D2E/DX2                !
 ! D56   D(22,10,11,23)          0.0864         estimate D2E/DX2                !
 ! D57   D(10,11,12,13)          0.2171         estimate D2E/DX2                !
 ! D58   D(10,11,12,25)       -179.7339         estimate D2E/DX2                !
 ! D59   D(23,11,12,13)       -179.984          estimate D2E/DX2                !
 ! D60   D(23,11,12,25)          0.065          estimate D2E/DX2                !
 ! D61   D(11,12,13,9)          -0.0238         estimate D2E/DX2                !
 ! D62   D(11,12,13,24)        179.9205         estimate D2E/DX2                !
 ! D63   D(25,12,13,9)         179.9275         estimate D2E/DX2                !
 ! D64   D(25,12,13,24)         -0.1283         estimate D2E/DX2                !
 ! D65   D(9,13,24,26)          -1.1412         estimate D2E/DX2                !
 ! D66   D(9,13,24,27)         178.8673         estimate D2E/DX2                !
 ! D67   D(12,13,24,26)        178.9106         estimate D2E/DX2                !
 ! D68   D(12,13,24,27)         -1.0809         estimate D2E/DX2                !
 ! D69   D(29,30,32,31)          3.3673         estimate D2E/DX2                !
 ! D70   D(29,30,32,33)       -176.748          estimate D2E/DX2                !
 ! D71   D(20,31,32,30)          3.2493         estimate D2E/DX2                !
 ! D72   D(20,31,32,33)       -176.6322         estimate D2E/DX2                !
 ! D73   D(30,32,33,34)       -179.9177         estimate D2E/DX2                !
 ! D74   D(30,32,33,35)         56.5557         estimate D2E/DX2                !
 ! D75   D(30,32,33,36)        -56.417          estimate D2E/DX2                !
 ! D76   D(31,32,33,34)         -0.0276         estimate D2E/DX2                !
 ! D77   D(31,32,33,35)       -123.5541         estimate D2E/DX2                !
 ! D78   D(31,32,33,36)        123.4732         estimate D2E/DX2                !
 ! D79   D(32,33,34,37)        -60.2159         estimate D2E/DX2                !
 ! D80   D(32,33,34,38)        179.9264         estimate D2E/DX2                !
 ! D81   D(32,33,34,39)         60.0632         estimate D2E/DX2                !
 ! D82   D(35,33,34,37)         61.239          estimate D2E/DX2                !
 ! D83   D(35,33,34,38)        -58.6188         estimate D2E/DX2                !
 ! D84   D(35,33,34,39)       -178.482          estimate D2E/DX2                !
 ! D85   D(36,33,34,37)        178.368          estimate D2E/DX2                !
 ! D86   D(36,33,34,38)         58.5102         estimate D2E/DX2                !
 ! D87   D(36,33,34,39)        -61.353          estimate D2E/DX2                !
 --------------------------------------------------------------------------------
 Trust Radius=3.00D-01 FncErr=1.00D-07 GrdErr=1.00D-06
 Number of steps in this run=    206 maximum allowed number of steps=    234.
 GradGradGradGradGradGradGradGradGradGradGradGradGradGradGradGradGradGrad

                          Input orientation:                          
 ---------------------------------------------------------------------
 Center     Atomic      Atomic             Coordinates (Angstroms)
 Number     Number       Type             X           Y           Z
 ---------------------------------------------------------------------
      1          6           0       11.794627    0.046615   -7.427088
      2          6           0       10.651776   -0.124715   -6.431448
      3          6           0       10.635319    1.008851   -5.416011
      4          7           0        9.540211    0.829794   -4.473993
      5          6           0        9.323499    1.724879   -3.490831
      6          8           0       10.046782    2.725880   -3.326338
      7          7           0        8.241148    1.433824   -2.686606
      8          6           0        7.773002    2.160318   -1.595230
      9          6           0        8.266118    3.410168   -1.202333
     10          6           0        6.719401    1.586370   -0.856530
     11          6           0        6.173380    2.233527    0.243373
     12          6           0        6.655240    3.475400    0.653263
     13          6           0        7.691193    4.020171   -0.091634
     14          1           0       11.807547   -0.769464   -8.155712
     15          1           0       12.762813    0.055938   -6.914125
     16          1           0       10.752267   -1.081695   -5.904612
     17          1           0        9.691861   -0.149795   -6.961939
     18          1           0       10.527028    1.970921   -5.932628
     19          1           0       11.588238    1.037813   -4.873267
     20          1           0        8.904647    0.031912   -4.604657
     21          1           0        9.065756    3.894456   -1.740680
     22          1           0        6.332747    0.617768   -1.161034
     23          1           0        5.363424    1.763871    0.791864
     24          7           0        8.220931    5.327462    0.311594
     25          1           0        6.244643    3.992958    1.511072
     26          8           0        9.147281    5.806639   -0.326215
     27          8           0        7.713450    5.887975    1.272965
     28          1           0       11.696256    0.988736   -7.977820
     29          1           0        7.745780    0.547098   -2.875475
     30          8           0        6.811089   -1.005127   -3.093628
     31          8           0        7.863088   -1.474466   -5.009103
     32          6           0        7.002404   -1.726065   -4.121119
     33          6           0        6.123048   -2.965579   -4.258200
     34          6           0        6.378560   -3.809020   -5.499087
     35          1           0        5.081980   -2.622000   -4.229662
     36          1           0        6.267615   -3.560036   -3.348014
     37          1           0        6.208489   -3.231203   -6.412847
     38          1           0        5.708663   -4.674463   -5.517025
     39          1           0        7.408509   -4.178387   -5.521820
 ---------------------------------------------------------------------
                    Distance matrix (angstroms):
                    1          2          3          4          5
     1  C    0.000000
     2  C    1.525373   0.000000
     3  C    2.512832   1.521957   0.000000
     4  N    3.796911   2.445055   1.455583   0.000000
     5  C    4.941372   3.719212   2.437188   1.347125   0.000000
     6  O    5.200920   4.258358   2.767905   2.273514   1.245873
     7  N    6.084713   4.718475   3.655449   2.290670   1.379484
     8  C    7.392684   6.074349   4.910917   3.630510   2.487359
     9  C    7.906417   6.747622   5.397640   4.357224   3.032405
    10  C    8.443992   7.033569   6.037948   4.649238   3.706758
    11  C    9.757918   8.376787   7.310086   5.963183   4.911848
    12  C   10.171624   8.895294   7.665571   6.450662   5.230435
    13  C    9.297108   8.132550   6.788588   5.727342   4.414446
    14  H    1.094095   2.173613   3.470228   4.610151   5.844087
    15  H    1.095720   2.173037   2.771032   4.115612   5.131587
    16  H    2.162760   1.097026   2.150067   2.677600   3.967943
    17  H    2.162536   1.097036   2.149992   2.678147   3.962156
    18  H    2.746484   2.157794   1.097360   2.098474   2.733384
    19  H    2.747193   2.157859   1.097025   2.096927   2.740845
    20  H    4.039593   2.532618   2.146609   1.028412   2.069343
    21  H    7.388359   6.377499   4.929331   4.133795   2.799380
    22  H    8.331973   6.854382   6.063819   4.616111   3.949462
    23  H   10.576413   9.149298   8.179282   6.785817   5.833113
    24  N   10.027255   9.005767   7.568694   6.698608   5.352822
    25  H   11.236843   9.973047   8.727394   7.529102   6.296235
    26  O    9.518861   8.643976   7.151157   6.490565   5.167845
    27  O   11.245817  10.205105   8.779839   7.870817   6.528199
    28  H    1.095707   2.173011   2.772879   4.117110   5.128835
    29  H    6.112350   4.641237   3.875174   2.419743   2.062772
    30  O    6.687353   5.164014   4.906558   3.566574   3.731341
    31  O    4.859767   3.409057   3.744022   2.899776   3.830634
    32  C    6.085821   4.606502   4.728063   3.619034   4.206395
    33  C    7.161143   5.770866   6.123497   5.111598   5.729933
    34  C    6.922203   5.718722   6.429524   5.706615   6.582537
    35  H    7.899663   6.488985   6.740184   5.643617   6.118146
    36  H    7.758520   6.366307   6.650427   5.590020   6.106484
    37  H    6.555739   5.421570   6.210360   5.599217   6.542493
    38  H    7.935733   6.780173   7.522114   6.787159   7.623914
    39  H    6.381122   5.270528   6.109905   5.542922   6.529981
                    6          7          8          9         10
     6  O    0.000000
     7  N    2.310623   0.000000
     8  C    2.913190   1.392141   0.000000
     9  C    2.854893   2.471765   1.399877   0.000000
    10  C    4.297662   2.384987   1.408960   2.416226   0.000000
    11  C    5.290415   3.674230   2.438157   2.802517   1.388070
    12  C    5.282193   4.223489   2.834528   2.458134   2.419096
    13  C    4.205628   3.704797   2.393020   1.391509   2.729987
    14  H    6.216154   6.890922   8.240213   8.852148   9.204197
    15  H    5.232363   6.341604   7.590605   8.005978   8.692497
    16  H    4.652186   4.794697   6.160962   6.961982   6.990402
    17  H    4.648986   4.784443   6.149814   6.919476   7.008981
    18  H    2.755602   4.006292   5.141357   5.436804   6.357096
    19  H    2.760189   4.017627   5.153792   5.490019   6.335666
    20  H    3.193123   2.466680   3.855825   4.836955   4.608698
    21  H    2.200521   2.762149   2.167857   1.078784   3.407986
    22  H    4.788187   2.575910   2.154604   3.396634   1.086469
    23  H    6.310222   4.526586   3.414887   3.887512   2.141818
    24  N    4.830788   4.914267   3.723898   2.443365   4.197008
    25  H    6.281901   5.306194   3.917085   3.433449   3.409193
    26  O    4.393281   5.051142   4.098133   2.699464   4.897602
    27  O    6.049535   5.982986   4.703776   3.545711   4.901702
    28  H    5.232085   6.335047   7.583006   7.970972   8.708560
    29  H    3.200778   1.033123   2.059672   3.356683   2.491923
    30  O    4.944116   2.856435   3.631875   5.018858   3.424744
    31  O    5.024254   3.740999   4.987415   6.205931   5.283995
    32  C    5.451581   3.684728   4.698714   6.041289   4.659384
    33  C    6.975440   5.129425   6.007377   7.387910   5.713776
    34  C    7.802667   6.234317   7.267570   8.610554   7.125991
    35  H    7.352895   5.367595   6.087068   7.462606   5.636447
    36  H    7.334529   5.410262   6.169352   7.561859   5.735600
    37  H    7.729545   6.307064   7.397678   8.688561   7.371750
    38  H    8.853443   7.192769   8.145932   9.514115   7.870186
    39  H    7.710352   6.342606   7.465264   8.773804   7.447969
                   11         12         13         14         15
    11  C    0.000000
    12  C    1.393717   0.000000
    13  C    2.368139   1.387388   0.000000
    14  H   10.550185  11.052745  10.242770   0.000000
    15  H    9.969568  10.308275   9.379918   1.770695   0.000000
    16  H    8.351923   8.975437   8.318048   2.505704   2.521035
    17  H    8.365193   8.964063   8.282052   2.507032   3.078207
    18  H    7.560833   7.786409   6.808715   3.753870   3.103101
    19  H    7.545225   7.798643   6.851674   3.753504   2.551236
    20  H    5.984173   6.675565   6.143782   4.656073   4.496628
    21  H    3.880849   3.423034   2.150484   8.391794   7.427448
    22  H    2.146726   3.400255   3.816456   8.990181   8.646355
    23  H    1.085104   2.148798   3.360055  11.313869  10.818977
    24  N    3.710735   2.449135   1.467046  11.033204  10.031384
    25  H    2.169732   1.082724   2.159146  12.127377  11.356522
    26  O    4.683550   3.550256   2.316612  10.565187   9.462727
    27  O    4.097177   2.706354   2.313291  12.246757  11.248874
    28  H    9.981967  10.300045   9.349977   1.770677   1.771752
    29  H    3.878621   4.713409   4.451403   6.790595   6.459299
    30  O    4.693733   5.842825   5.919474   7.116517   7.151579
    31  O    6.647769   7.617248   7.375777   5.094794   5.475267
    32  C    5.951004   7.068981   7.051980   6.346843   6.645203
    33  C    6.877310   8.117383   8.283722   7.233743   7.763374
    34  C    8.338484   9.538907   9.605196   6.765386   7.595981
    35  H    6.691437   7.968462   8.249224   8.004936   8.565798
    36  H    6.817061   8.102953   8.371985   7.848063   8.244999
    37  H    8.612187   9.752334   9.733374   6.359810   7.349540
    38  H    9.006579  10.265901  10.438484   7.707662   8.607532
    39  H    8.710663   9.863039   9.837845   6.157083   6.966821
                   16         17         18         19         20
    16  H    0.000000
    17  H    1.763757   0.000000
    18  H    3.061043   2.500884   0.000000
    19  H    2.500967   3.060916   1.766098   0.000000
    20  H    2.518671   2.491887   2.855763   2.878480   0.000000
    21  H    6.704083   6.633967   4.838153   4.933196   4.811192
    22  H    6.702377   6.747096   6.495469   6.448046   4.337792
    23  H    9.054263   9.083995   8.480830   8.448029   6.682992
    24  N    9.280418   9.223246   7.454847   7.524801   7.258087
    25  H   10.053016  10.041794   8.822478   8.834403   7.756780
    26  O    9.007976   8.933561   6.931688   7.026782   7.191064
    27  O   10.456018  10.401078   8.670646   8.735801   8.382056
    28  H    3.078309   2.519100   2.552370   3.106819   4.481832
    29  H    4.568107   4.579528   4.371360   4.358492   2.144402
    30  O    4.841527   4.898395   5.543012   5.491983   2.782381
    31  O    3.050174   2.985420   4.451984   4.495191   1.875526
    32  C    4.202087   4.217590   5.419617   5.406905   2.634924
    33  C    5.262068   5.289165   6.824059   6.802482   4.103935
    34  C    5.170306   5.148576   7.127795   7.143122   4.683363
    35  H    6.109841   5.901537   7.324177   7.492653   4.668689
    36  H    5.726296   6.034539   7.444079   7.195529   4.629815
    37  H    5.052188   4.682997   6.778089   7.038218   4.602906
    38  H    6.204526   6.198892   8.218910   8.222768   5.761657
    39  H    4.573483   4.849453   6.907092   6.715616   4.561386
                   21         22         23         24         25
    21  H    0.000000
    22  H    4.306044   0.000000
    23  H    4.965928   2.463118   0.000000
    24  N    2.641791   5.283473   4.592950   0.000000
    25  H    4.306074   4.305789   2.502526   2.669338   0.000000
    26  O    2.379874   5.961787   5.649040   1.222512   3.884632
    27  O    3.858096   5.967057   4.770987   1.223089   2.409393
    28  H    7.366455   8.681786  10.844951   9.980822  11.348326
    29  H    3.772917   2.222828   4.539332   5.764985   5.776604
    30  O    5.560567   2.568564   4.985994   7.326996   6.819456
    31  O    6.399557   4.639722   7.098336   8.643153   8.661684
    32  C    6.443150   3.834593   6.245264   8.419382   8.062444
    33  C    7.877660   4.740969   6.960451   9.698384   9.039940
    34  C    8.982772   6.198166   8.465441  10.983335  10.489572
    35  H    8.033038   4.634327   6.673140   9.678324   8.835467
    36  H    8.122966   4.716055   6.804421   9.807946   8.981034
    37  H    8.987110   6.512416   8.807540  11.068820  10.722793
    38  H    9.947725   6.882721   9.020721  11.845792  11.171643
    39  H    9.067210   6.570908   8.908166  11.182572  10.843756
                   26         27         28         29         30
    26  O    0.000000
    27  O    2.149387   0.000000
    28  H    9.394494  11.200103   0.000000
    29  H    6.010466   6.762807   6.468015   0.000000
    30  O    7.714695   8.209521   7.189970   1.825005   0.000000
    31  O    8.751748   9.679478   5.438181   2.941573   2.235179
    32  C    8.703070   9.358169   6.654061   2.696574   1.269682
    33  C   10.077614  10.559762   7.780284   4.109025   2.381806
    34  C   11.264339  11.902702   7.578949   5.265776   3.719561
    35  H   10.139306  10.470110   8.416338   4.355782   2.625770
    36  H   10.254675  10.616440   8.461475   4.390538   2.624431
    37  H   11.285663  12.020649   7.097366   5.399243   4.041751
    38  H   12.191066  12.715668   8.601081   6.196154   4.533456
    39  H   11.389398  12.148816   7.149536   5.426519   4.040125
                   31         32         33         34         35
    31  O    0.000000
    32  C    1.261981   0.000000
    33  C    2.411434   1.525927   0.000000
    34  C    2.809635   2.574233   1.521999   0.000000
    35  H    3.107881   2.121912   1.096669   2.168312   0.000000
    36  H    3.107146   2.121569   1.096685   2.168275   1.750127
    37  H    2.791831   2.854427   2.172638   1.094419   2.531096
    38  H    3.890952   3.509325   2.162554   1.094566   2.502527
    39  H    2.789393   2.853203   2.172568   1.094415   3.082978
                   36         37         38         39
    36  H    0.000000
    37  H    3.082989   0.000000
    38  H    2.501796   1.770683   0.000000
    39  H    2.531685   1.769501   1.770760   0.000000
 Stoichiometry    C13H18N3O5(1-)
 Framework group  C1[X(C13H18N3O5)]
 Deg. of freedom   111
 Full point group                 C1      NOp   1
 Largest Abelian subgroup         C1      NOp   1
 Largest concise Abelian subgroup C1      NOp   1
                         Standard orientation:                         
 ---------------------------------------------------------------------
 Center     Atomic      Atomic             Coordinates (Angstroms)
 Number     Number       Type             X           Y           Z
 ---------------------------------------------------------------------
      1          6           0       -4.376801    3.972826   -0.023962
      2          6           0       -3.716371    2.597867   -0.015067
      3          6           0       -2.199702    2.718379   -0.054398
      4          7           0       -1.585863    1.398587   -0.046020
      5          6           0       -0.245821    1.261613   -0.062518
      6          8           0        0.525890    2.238821   -0.104056
      7          7           0        0.191497   -0.046412   -0.034261
      8          6           0        1.506275   -0.503854   -0.047007
      9          6           0        2.634883    0.319907    0.038534
     10          6           0        1.691677   -1.897561   -0.138523
     11          6           0        2.961902   -2.457173   -0.148502
     12          6           0        4.097396   -1.652809   -0.070410
     13          6           0        3.888233   -0.284332    0.021065
     14          1           0       -5.467127    3.885946    0.002225
     15          1           0       -4.104735    4.532129   -0.926051
     16          1           0       -4.055820    2.012023   -0.878216
     17          1           0       -4.012575    2.044558    0.884710
     18          1           0       -1.848875    3.296446    0.809869
     19          1           0       -1.891671    3.263156   -0.955396
     20          1           0       -2.195412    0.573172    0.023058
     21          1           0        2.544637    1.391905    0.118856
     22          1           0        0.817422   -2.539478   -0.202042
     23          1           0        3.070595   -3.534361   -0.221323
     24          7           0        5.062171    0.591319    0.106676
     25          1           0        5.095962   -2.071191   -0.081098
     26          8           0        4.888769    1.799954    0.167249
     27          8           0        6.171394    0.076036    0.113932
     28          1           0       -4.064658    4.562806    0.844982
     29          1           0       -0.534643   -0.780838   -0.060385
     30          8           0       -1.722659   -2.164298   -0.133173
     31          8           0       -3.468461   -0.798039    0.152377
     32          6           0       -2.964970   -1.946850    0.013361
     33          6           0       -3.876356   -3.170707    0.014236
     34          6           0       -5.359182   -2.875976    0.189858
     35          1           0       -3.515741   -3.835532    0.808369
     36          1           0       -3.694991   -3.702682   -0.927479
     37          1           0       -5.552751   -2.370485    1.141049
     38          1           0       -5.937233   -3.805372    0.177413
     39          1           0       -5.733465   -2.234437   -0.613935
 ---------------------------------------------------------------------
 Rotational constants (GHZ):      0.4127727      0.1391634      0.1045451
 General basis read from cards:  (6D, 7F)
 There are   435 symmetry adapted cartesian basis functions of A   symmetry.
 There are   435 symmetry adapted basis functions of A   symmetry.
   435 basis functions,   744 primitive gaussians,   435 cartesian basis functions
    79 alpha electrons       79 beta electrons
       nuclear repulsion energy      1630.5657733864 Hartrees.
 NAtoms=   39 NActive=   39 NUniq=   39 SFac= 1.00D+00 NAtFMM=   60 NAOKFM=F Big=F
 Integral buffers will be    131072 words long.
 Raffenetti 2 integral format.
 Two-electron integral symmetry is turned on.
 ------------------------------------------------------------------------------
 Polarizable Continuum Model (PCM)
 =================================
 Model                : PCM (using non-symmetric T matrix).
 Atomic radii         : SMD-Coulomb.
 Polarization charges : Total charges.
 Charge compensation  : None.
 Solution method      : On-the-fly selection.
 Cavity type          : VdW (van der Waals Surface) (Alpha=1.000).
 Cavity algorithm     : GePol (No added spheres)
                        Default sphere list used, NSphG=   39.
                        Lebedev-Laikov grids with approx.  5.0 points / Ang**2.
                        Smoothing algorithm: York/Karplus (Gamma=1.0000).
                        Polarization charges: spherical gaussians, with
                                              point-specific exponents (IZeta= 3).
                        Self-potential: point-specific (ISelfS= 7).
                        Self-field    : sphere-specific E.n sum rule (ISelfD= 2).
 1st derivatives      : Analytical E(r).r(x)/FMM algorithm (CHGder, D1EAlg=3).
                        Cavity 1st derivative terms included.
 Solvent              : n-Pentadecane, Eps=   2.033300 Eps(inf)=   2.049192
 ------------------------------------------------------------------------------
 ------------------------------------------------------------------------------
 Atomic radii for non-electrostatic terms: SMD-CDS.
 ------------------------------------------------------------------------------
 Nuclear repulsion after PCM non-electrostatic terms =     1630.5545713068 Hartrees.
 One-electron integrals computed using PRISM.
 NBasis=   435 RedAO= T EigKep=  1.16D-06  NBF=   435
 NBsUse=   434 1.00D-06 EigRej=  9.64D-07 NBFU=   434
 ExpMin= 4.38D-02 ExpMax= 5.48D+03 ExpMxC= 8.25D+02 IAcc=3 IRadAn=         5 AccDes= 0.00D+00
 Harris functional with IExCor= 1009 and IRadAn=       5 diagonalized for initial guess.
 HarFok:  IExCor= 1009 AccDes= 0.00D+00 IRadAn=         5 IDoV= 1 UseB2=F ITyADJ=14
 ICtDFT=  3500011 ScaDFX=  1.000000  1.000000  1.000000  1.000000
 FoFCou: FMM=F IPFlag=           0 FMFlag=      100000 FMFlg1=           0
         NFxFlg=           0 DoJE=T BraDBF=F KetDBF=T FulRan=T
         wScrn=  0.000000 ICntrl=     500 IOpCl=  0 I1Cent=   200000004 NGrid=           0
         NMat0=    1 NMatS0=      1 NMatT0=    0 NMatD0=    1 NMtDS0=    0 NMtDT0=    0
 Petite list used in FoFCou.
 Requested convergence on RMS density matrix=1.00D-08 within 128 cycles.
 Requested convergence on MAX density matrix=1.00D-06.
 Requested convergence on             energy=1.00D-06.
 No special actions if energy rises.
 Inv3:  Mode=1 IEnd=    30070668.
 Iteration    1 A*A^-1 deviation from unit magnitude is 6.00D-15 for   3153.
 Iteration    1 A*A^-1 deviation from orthogonality  is 2.56D-15 for   1052     29.
 Iteration    1 A^-1*A deviation from unit magnitude is 5.77D-15 for   3153.
 Iteration    1 A^-1*A deviation from orthogonality  is 1.70D-14 for   2463   2372.
 Error on total polarization charges =  0.02521
 SCF Done:  E(RM062X) =  -1046.29428630     A.U. after   16 cycles
            NFock= 16  Conv=0.39D-08     -V/T= 2.0085
 SMD-CDS (non-electrostatic) energy       (kcal/mol) =      -7.03
 (included in total energy above)

 **********************************************************************

            Population analysis using the SCF density.

 **********************************************************************

 Orbital symmetries:
       Occupied  (A) (A) (A) (A) (A) (A) (A) (A) (A) (A) (A) (A)
                 (A) (A) (A) (A) (A) (A) (A) (A) (A) (A) (A) (A)
                 (A) (A) (A) (A) (A) (A) (A) (A) (A) (A) (A) (A)
                 (A) (A) (A) (A) (A) (A) (A) (A) (A) (A) (A) (A)
                 (A) (A) (A) (A) (A) (A) (A) (A) (A) (A) (A) (A)
                 (A) (A) (A) (A) (A) (A) (A) (A) (A) (A) (A) (A)
                 (A) (A) (A) (A) (A) (A) (A)
       Virtual   (A) (A) (A) (A) (A) (A) (A) (A) (A) (A) (A) (A)
                 (A) (A) (A) (A) (A) (A) (A) (A) (A) (A) (A) (A)
                 (A) (A) (A) (A) (A) (A) (A) (A) (A) (A) (A) (A)
                 (A) (A) (A) (A) (A) (A) (A) (A) (A) (A) (A) (A)
                 (A) (A) (A) (A) (A) (A) (A) (A) (A) (A) (A) (A)
                 (A) (A) (A) (A) (A) (A) (A) (A) (A) (A) (A) (A)
                 (A) (A) (A) (A) (A) (A) (A) (A) (A) (A) (A) (A)
                 (A) (A) (A) (A) (A) (A) (A) (A) (A) (A) (A) (A)
                 (A) (A) (A) (A) (A) (A) (A) (A) (A) (A) (A) (A)
                 (A) (A) (A) (A) (A) (A) (A) (A) (A) (A) (A) (A)
                 (A) (A) (A) (A) (A) (A) (A) (A) (A) (A) (A) (A)
                 (A) (A) (A) (A) (A) (A) (A) (A) (A) (A) (A) (A)
                 (A) (A) (A) (A) (A) (A) (A) (A) (A) (A) (A) (A)
                 (A) (A) (A) (A) (A) (A) (A) (A) (A) (A) (A) (A)
                 (A) (A) (A) (A) (A) (A) (A) (A) (A) (A) (A) (A)
                 (A) (A) (A) (A) (A) (A) (A) (A) (A) (A) (A) (A)
                 (A) (A) (A) (A) (A) (A) (A) (A) (A) (A) (A) (A)
                 (A) (A) (A) (A) (A) (A) (A) (A) (A) (A) (A) (A)
                 (A) (A) (A) (A) (A) (A) (A) (A) (A) (A) (A) (A)
                 (A) (A) (A) (A) (A) (A) (A) (A) (A) (A) (A) (A)
                 (A) (A) (A) (A) (A) (A) (A) (A) (A) (A) (A) (A)
                 (A) (A) (A) (A) (A) (A) (A) (A) (A) (A) (A) (A)
                 (A) (A) (A) (A) (A) (A) (A) (A) (A) (A) (A) (A)
                 (A) (A) (A) (A) (A) (A) (A) (A) (A) (A) (A) (A)
                 (A) (A) (A) (A) (A) (A) (A) (A) (A) (A) (A) (A)
                 (A) (A) (A) (A) (A) (A) (A) (A) (A) (A) (A) (A)
                 (A) (A) (A) (A) (A) (A) (A) (A) (A) (A) (A) (A)
                 (A) (A) (A) (A) (A) (A) (A) (A) (A) (A) (A) (A)
                 (A) (A) (A) (A) (A) (A) (A) (A) (A) (A) (A) (A)
                 (A) (A) (A) (A) (A) (A) (A)
 The electronic state is 1-A.
 Alpha  occ. eigenvalues --  -19.64010 -19.63994 -19.54147 -19.52024 -19.51783
 Alpha  occ. eigenvalues --  -14.97103 -14.72455 -14.70529 -10.61395 -10.56874
 Alpha  occ. eigenvalues --  -10.56612 -10.56277 -10.52292 -10.52206 -10.52021
 Alpha  occ. eigenvalues --  -10.51535 -10.51533 -10.49200 -10.49119 -10.48016
 Alpha  occ. eigenvalues --  -10.47797  -1.32522  -1.13637  -1.10113  -1.07912
 Alpha  occ. eigenvalues --   -0.99094  -0.97944  -0.96014  -0.93165  -0.85445
 Alpha  occ. eigenvalues --   -0.83117  -0.80273  -0.80163  -0.74736  -0.72559
 Alpha  occ. eigenvalues --   -0.67018  -0.66511  -0.63845  -0.62670  -0.61285
 Alpha  occ. eigenvalues --   -0.59255  -0.58110  -0.56637  -0.55331  -0.52958
 Alpha  occ. eigenvalues --   -0.52138  -0.51086  -0.49945  -0.47689  -0.47314
 Alpha  occ. eigenvalues --   -0.46634  -0.46282  -0.45843  -0.45461  -0.43670
 Alpha  occ. eigenvalues --   -0.42362  -0.42042  -0.41108  -0.39867  -0.39531
 Alpha  occ. eigenvalues --   -0.39065  -0.38570  -0.38247  -0.37063  -0.35835
 Alpha  occ. eigenvalues --   -0.34917  -0.34821  -0.34642  -0.33794  -0.33750
 Alpha  occ. eigenvalues --   -0.33492  -0.32381  -0.27999  -0.27678  -0.25316
 Alpha  occ. eigenvalues --   -0.24671  -0.24561  -0.23922  -0.21492
 Alpha virt. eigenvalues --   -0.00915   0.06178   0.06328   0.06835   0.07292
 Alpha virt. eigenvalues --    0.07694   0.08046   0.08579   0.08724   0.09225
 Alpha virt. eigenvalues --    0.09381   0.09805   0.10731   0.10960   0.11125
 Alpha virt. eigenvalues --    0.11532   0.12158   0.12480   0.12592   0.12714
 Alpha virt. eigenvalues --    0.13671   0.14183   0.14420   0.14956   0.15117
 Alpha virt. eigenvalues --    0.15553   0.15670   0.15933   0.16031   0.16972
 Alpha virt. eigenvalues --    0.17579   0.18014   0.18263   0.19055   0.19218
 Alpha virt. eigenvalues --    0.19613   0.19807   0.20133   0.20525   0.21415
 Alpha virt. eigenvalues --    0.21638   0.22192   0.22718   0.22889   0.23513
 Alpha virt. eigenvalues --    0.24041   0.24617   0.24986   0.25428   0.26099
 Alpha virt. eigenvalues --    0.26311   0.26803   0.27340   0.27430   0.27614
 Alpha virt. eigenvalues --    0.28121   0.28514   0.28875   0.29170   0.29421
 Alpha virt. eigenvalues --    0.29863   0.30005   0.30251   0.30480   0.30523
 Alpha virt. eigenvalues --    0.30692   0.31284   0.31809   0.32416   0.32552
 Alpha virt. eigenvalues --    0.33186   0.33650   0.33862   0.34127   0.34717
 Alpha virt. eigenvalues --    0.34923   0.35160   0.35597   0.36309   0.36401
 Alpha virt. eigenvalues --    0.36607   0.36854   0.37206   0.37871   0.38205
 Alpha virt. eigenvalues --    0.38248   0.38599   0.39159   0.39413   0.39559
 Alpha virt. eigenvalues --    0.39954   0.40689   0.41037   0.41301   0.41658
 Alpha virt. eigenvalues --    0.42015   0.42529   0.43028   0.43253   0.43705
 Alpha virt. eigenvalues --    0.44559   0.45394   0.45761   0.46466   0.46867
 Alpha virt. eigenvalues --    0.47227   0.47828   0.48542   0.50389   0.50759
 Alpha virt. eigenvalues --    0.52525   0.52708   0.53467   0.54252   0.54807
 Alpha virt. eigenvalues --    0.56755   0.57698   0.58527   0.60436   0.60947
 Alpha virt. eigenvalues --    0.61349   0.61840   0.64512   0.65496   0.67439
 Alpha virt. eigenvalues --    0.68808   0.71977   0.74161   0.75138   0.75745
 Alpha virt. eigenvalues --    0.76325   0.78648   0.79682   0.80371   0.80826
 Alpha virt. eigenvalues --    0.81263   0.81741   0.82600   0.83111   0.83469
 Alpha virt. eigenvalues --    0.83834   0.83957   0.84591   0.86312   0.86715
 Alpha virt. eigenvalues --    0.87405   0.87766   0.88470   0.91613   0.92194
 Alpha virt. eigenvalues --    0.92876   0.93425   0.94821   0.95247   0.95968
 Alpha virt. eigenvalues --    0.98795   1.00092   1.00248   1.00994   1.02307
 Alpha virt. eigenvalues --    1.03216   1.04371   1.05504   1.05883   1.06855
 Alpha virt. eigenvalues --    1.08426   1.09434   1.09842   1.11295   1.11782
 Alpha virt. eigenvalues --    1.12379   1.12834   1.13536   1.14376   1.15044
 Alpha virt. eigenvalues --    1.17068   1.18474   1.20057   1.21329   1.21861
 Alpha virt. eigenvalues --    1.22705   1.23467   1.24047   1.24557   1.25577
 Alpha virt. eigenvalues --    1.26942   1.28086   1.29147   1.30038   1.30140
 Alpha virt. eigenvalues --    1.31208   1.31974   1.32433   1.33501   1.35471
 Alpha virt. eigenvalues --    1.37579   1.38183   1.38473   1.39686   1.40409
 Alpha virt. eigenvalues --    1.40693   1.41474   1.42261   1.42772   1.44261
 Alpha virt. eigenvalues --    1.45427   1.45765   1.46634   1.47250   1.47826
 Alpha virt. eigenvalues --    1.48242   1.49754   1.50670   1.51171   1.52074
 Alpha virt. eigenvalues --    1.52225   1.54008   1.54844   1.55545   1.56153
 Alpha virt. eigenvalues --    1.56320   1.56736   1.57464   1.57733   1.60184
 Alpha virt. eigenvalues --    1.61010   1.63803   1.63960   1.64576   1.66669
 Alpha virt. eigenvalues --    1.67427   1.70349   1.71827   1.73794   1.77587
 Alpha virt. eigenvalues --    1.80884   1.81467   1.85586   1.86774   1.87753
 Alpha virt. eigenvalues --    1.89810   1.90467   1.90705   1.91727   1.92719
 Alpha virt. eigenvalues --    1.93331   1.94191   1.94997   1.98226   1.98882
 Alpha virt. eigenvalues --    1.99081   2.00343   2.01096   2.01672   2.02431
 Alpha virt. eigenvalues --    2.02530   2.02983   2.03538   2.03808   2.04202
 Alpha virt. eigenvalues --    2.05723   2.07226   2.08321   2.09238   2.10775
 Alpha virt. eigenvalues --    2.12113   2.12497   2.13492   2.14524   2.16852
 Alpha virt. eigenvalues --    2.17180   2.17409   2.19086   2.20768   2.22242
 Alpha virt. eigenvalues --    2.24172   2.24467   2.26117   2.26740   2.26858
 Alpha virt. eigenvalues --    2.28298   2.30652   2.31124   2.31812   2.33877
 Alpha virt. eigenvalues --    2.35566   2.36817   2.37296   2.38085   2.41492
 Alpha virt. eigenvalues --    2.44528   2.44676   2.45510   2.46059   2.48248
 Alpha virt. eigenvalues --    2.49367   2.49998   2.51879   2.56164   2.60346
 Alpha virt. eigenvalues --    2.61661   2.61839   2.62869   2.63469   2.66287
 Alpha virt. eigenvalues --    2.68810   2.70000   2.72647   2.72989   2.74738
 Alpha virt. eigenvalues --    2.77852   2.79672   2.81397   2.82219   2.82831
 Alpha virt. eigenvalues --    2.86702   2.87211   2.88937   2.92183   2.96319
 Alpha virt. eigenvalues --    2.99950   3.03495   3.06376   3.11164   3.15520
 Alpha virt. eigenvalues --    3.17296   3.19406   3.20972   3.22330   3.26582
 Alpha virt. eigenvalues --    3.28907   3.36942   3.42390   3.52350   4.19486
 Alpha virt. eigenvalues --    4.30623   4.32491   4.33513   4.35361   4.39047
 Alpha virt. eigenvalues --    4.45097   4.46820   4.50131   4.51455   4.53642
 Alpha virt. eigenvalues --    4.55507   4.56674   4.58870   4.64111   4.68987
 Alpha virt. eigenvalues --    4.76032   4.79366   4.82870   4.85091   4.92556
          Condensed to atoms (all electrons):
               1          2          3          4          5          6
     1  C    5.877371  -0.247092  -0.000856  -0.017275  -0.027868  -0.000828
     2  C   -0.247092   6.485045  -0.626179  -0.070307   0.272908   0.024089
     3  C   -0.000856  -0.626179   6.969930   0.357397  -0.777835  -0.083227
     4  N   -0.017275  -0.070307   0.357397   7.835169   0.367670  -0.172800
     5  C   -0.027868   0.272908  -0.777835   0.367670   6.243558   0.666482
     6  O   -0.000828   0.024089  -0.083227  -0.172800   0.666482   8.370190
     7  N   -0.000495   0.026027  -0.110374  -0.363450   0.136755  -0.079360
     8  C   -0.006547   0.023671  -0.392413  -0.214621  -1.234825  -0.298634
     9  C    0.007681  -0.035184   0.206315   0.191085   0.779771   0.310493
    10  C   -0.004960   0.020982  -0.181667  -0.152666  -1.180798  -0.101601
    11  C   -0.000730   0.001530  -0.010617  -0.043283   0.189632   0.010356
    12  C    0.000203  -0.000311   0.014188   0.009793   0.187402  -0.023300
    13  C    0.000896  -0.003630   0.006755   0.028041  -0.220121   0.005959
    14  H    0.454404  -0.127439   0.027962   0.000474  -0.001188   0.000003
    15  H    0.422975  -0.068689  -0.009318   0.000166   0.001428  -0.000019
    16  H   -0.036365   0.429483  -0.079180   0.005473  -0.001966  -0.000111
    17  H   -0.031997   0.430061  -0.087878   0.005621   0.002881  -0.000108
    18  H   -0.012664  -0.052152   0.457939  -0.055519  -0.031524   0.000951
    19  H   -0.009842  -0.048948   0.461199  -0.046528  -0.043503  -0.000305
    20  H    0.001569  -0.001684  -0.027069   0.162031  -0.003079   0.003875
    21  H    0.000021  -0.000009   0.004432   0.001329   0.044430  -0.003187
    22  H   -0.000002   0.000029   0.000115   0.000531   0.011536   0.000057
    23  H    0.000000  -0.000000   0.000023   0.000020   0.002661  -0.000003
    24  N    0.000003  -0.000078   0.000272   0.000764  -0.016164   0.003718
    25  H    0.000000   0.000000   0.000000  -0.000004   0.000068   0.000004
    26  O   -0.000002   0.000042  -0.000262  -0.000578  -0.005524  -0.001289
    27  O    0.000000  -0.000001   0.000170   0.000064   0.006636   0.000062
    28  H    0.417337  -0.061526  -0.010843   0.000302   0.001358  -0.000019
    29  H    0.000118  -0.001778   0.005467   0.017415  -0.019848   0.002814
    30  O   -0.000862  -0.007763   0.019997   0.013695   0.006036  -0.000540
    31  O    0.007991   0.007800  -0.019045  -0.037598   0.000517   0.000178
    32  C   -0.007037  -0.013248   0.015078  -0.002293  -0.018796  -0.000999
    33  C    0.005390  -0.012371   0.036989  -0.035225  -0.040285  -0.000911
    34  C   -0.000843   0.003685  -0.008094   0.004366   0.003163   0.000059
    35  H   -0.000011  -0.000142   0.000117   0.000056  -0.000423  -0.000000
    36  H    0.000005   0.000104  -0.000056  -0.000027  -0.000162  -0.000000
    37  H    0.000028   0.000122  -0.000242  -0.000050   0.000043  -0.000000
    38  H   -0.000004  -0.000007   0.000008   0.000020   0.000005   0.000000
    39  H   -0.000099  -0.000142  -0.000172  -0.000062   0.000020  -0.000000
               7          8          9         10         11         12
     1  C   -0.000495  -0.006547   0.007681  -0.004960  -0.000730   0.000203
     2  C    0.026027   0.023671  -0.035184   0.020982   0.001530  -0.000311
     3  C   -0.110374  -0.392413   0.206315  -0.181667  -0.010617   0.014188
     4  N   -0.363450  -0.214621   0.191085  -0.152666  -0.043283   0.009793
     5  C    0.136755  -1.234825   0.779771  -1.180798   0.189632   0.187402
     6  O   -0.079360  -0.298634   0.310493  -0.101601   0.010356  -0.023300
     7  N    7.976227  -0.278294   0.116704   0.074415  -0.060616   0.080605
     8  C   -0.278294  27.652705 -12.423032   0.685254   2.549589  -5.670931
     9  C    0.116704 -12.423032  23.597308  -6.581105  -5.753990   1.858278
    10  C    0.074415   0.685254  -6.581105  18.821823  -3.485679  -0.626046
    11  C   -0.060616   2.549589  -5.753990  -3.485679  15.473972  -1.939682
    12  C    0.080605  -5.670931   1.858278  -0.626046  -1.939682  13.294987
    13  C    0.114093  -5.170057   3.483914  -0.726406  -1.049060  -1.711030
    14  H    0.000017  -0.000028   0.000004  -0.000002  -0.000000   0.000000
    15  H    0.000016  -0.000000   0.000019  -0.000008  -0.000000   0.000000
    16  H   -0.000060  -0.000573  -0.000333   0.000293   0.000014   0.000000
    17  H    0.000053  -0.000812   0.000444  -0.000168  -0.000013   0.000003
    18  H   -0.000018  -0.002065  -0.000558   0.000577   0.000030   0.000014
    19  H   -0.001115  -0.002729  -0.000816  -0.000308   0.000022   0.000011
    20  H    0.006254   0.006381  -0.005745   0.003290   0.000701  -0.000130
    21  H   -0.010663  -0.134450   0.368264  -0.006029  -0.026960   0.060241
    22  H   -0.009193   0.045166   0.021539   0.160340   0.073807  -0.015292
    23  H    0.000482   0.021950   0.002883  -0.028670   0.304319   0.041129
    24  N   -0.012930   0.002115  -0.295196   0.048405   0.015164   0.293962
    25  H   -0.000279   0.013803   0.015006   0.003056  -0.063179   0.264401
    26  O    0.000943   0.310124   0.009653  -0.009664  -0.015168   0.099578
    27  O   -0.000759   0.105615   0.087440  -0.011275   0.172370  -0.157236
    28  H    0.000032   0.000006  -0.000013   0.000005   0.000000   0.000000
    29  H    0.114623   0.009855   0.090398  -0.106754   0.000230   0.001981
    30  O   -0.007802  -0.261754   0.014407   0.167703   0.054827   0.003178
    31  O    0.011974  -0.010966  -0.008099   0.016469  -0.003216   0.000407
    32  C   -0.012401   0.051078  -0.011695  -0.012991  -0.035366   0.000138
    33  C   -0.017499  -0.010588  -0.024020   0.013036   0.012574  -0.001519
    34  C    0.004329  -0.005031  -0.000475   0.005407  -0.000775   0.000186
    35  H   -0.000115  -0.001726  -0.000200   0.001764   0.000565   0.000008
    36  H    0.000003  -0.001154  -0.000045   0.001047   0.000294   0.000013
    37  H    0.000002  -0.000065   0.000001   0.000070   0.000008   0.000000
    38  H   -0.000009   0.000055   0.000002  -0.000050  -0.000005  -0.000000
    39  H    0.000007  -0.000080  -0.000004   0.000092   0.000011   0.000000
              13         14         15         16         17         18
     1  C    0.000896   0.454404   0.422975  -0.036365  -0.031997  -0.012664
     2  C   -0.003630  -0.127439  -0.068689   0.429483   0.430061  -0.052152
     3  C    0.006755   0.027962  -0.009318  -0.079180  -0.087878   0.457939
     4  N    0.028041   0.000474   0.000166   0.005473   0.005621  -0.055519
     5  C   -0.220121  -0.001188   0.001428  -0.001966   0.002881  -0.031524
     6  O    0.005959   0.000003  -0.000019  -0.000111  -0.000108   0.000951
     7  N    0.114093   0.000017   0.000016  -0.000060   0.000053  -0.000018
     8  C   -5.170057  -0.000028  -0.000000  -0.000573  -0.000812  -0.002065
     9  C    3.483914   0.000004   0.000019  -0.000333   0.000444  -0.000558
    10  C   -0.726406  -0.000002  -0.000008   0.000293  -0.000168   0.000577
    11  C   -1.049060  -0.000000  -0.000000   0.000014  -0.000013   0.000030
    12  C   -1.711030   0.000000   0.000000   0.000000   0.000003   0.000014
    13  C   12.357298   0.000000   0.000002  -0.000008   0.000011   0.000018
    14  H    0.000000   0.496735  -0.026574  -0.003076  -0.003033  -0.000065
    15  H    0.000002  -0.026574   0.503104  -0.004543   0.003857  -0.000360
    16  H   -0.000008  -0.003076  -0.004543   0.484768  -0.031227   0.004255
    17  H    0.000011  -0.003033   0.003857  -0.031227   0.482600  -0.005527
    18  H    0.000018  -0.000065  -0.000360   0.004255  -0.005527   0.518461
    19  H    0.000022  -0.000066   0.003002  -0.005520   0.004220  -0.046007
    20  H   -0.000382  -0.000000  -0.000001   0.000550   0.000909   0.001626
    21  H    0.007237   0.000000  -0.000000  -0.000000  -0.000000  -0.000001
    22  H    0.002860   0.000000  -0.000000  -0.000000  -0.000000   0.000000
    23  H   -0.034168  -0.000000   0.000000  -0.000000   0.000000   0.000000
    24  N   -0.388153   0.000000  -0.000000  -0.000000   0.000000   0.000000
    25  H    0.091664   0.000000  -0.000000  -0.000000  -0.000000  -0.000000
    26  O   -0.481125  -0.000000   0.000000  -0.000000   0.000000   0.000000
    27  O   -0.302655   0.000000  -0.000000   0.000000   0.000000  -0.000000
    28  H   -0.000000  -0.026487  -0.032232   0.003863  -0.004552   0.002916
    29  H    0.007220  -0.000000  -0.000000   0.000001   0.000002   0.000012
    30  O    0.002547   0.000000   0.000000   0.000043  -0.000014   0.000005
    31  O   -0.000143  -0.000039  -0.000017  -0.001783  -0.002417   0.000028
    32  C   -0.001748  -0.000094  -0.000043  -0.000638  -0.000936   0.000523
    33  C   -0.001953   0.000040  -0.000014   0.000256  -0.000231   0.000078
    34  C    0.000147  -0.000013   0.000003  -0.000156  -0.000012   0.000002
    35  H    0.000008  -0.000000   0.000000   0.000000   0.000000  -0.000000
    36  H   -0.000000  -0.000000   0.000000  -0.000000   0.000000   0.000000
    37  H    0.000000   0.000000  -0.000000  -0.000000   0.000000  -0.000000
    38  H    0.000000   0.000000  -0.000000  -0.000000  -0.000000   0.000000
    39  H    0.000000   0.000000  -0.000000   0.000001  -0.000000  -0.000000
              19         20         21         22         23         24
     1  C   -0.009842   0.001569   0.000021  -0.000002   0.000000   0.000003
     2  C   -0.048948  -0.001684  -0.000009   0.000029  -0.000000  -0.000078
     3  C    0.461199  -0.027069   0.004432   0.000115   0.000023   0.000272
     4  N   -0.046528   0.162031   0.001329   0.000531   0.000020   0.000764
     5  C   -0.043503  -0.003079   0.044430   0.011536   0.002661  -0.016164
     6  O   -0.000305   0.003875  -0.003187   0.000057  -0.000003   0.003718
     7  N   -0.001115   0.006254  -0.010663  -0.009193   0.000482  -0.012930
     8  C   -0.002729   0.006381  -0.134450   0.045166   0.021950   0.002115
     9  C   -0.000816  -0.005745   0.368264   0.021539   0.002883  -0.295196
    10  C   -0.000308   0.003290  -0.006029   0.160340  -0.028670   0.048405
    11  C    0.000022   0.000701  -0.026960   0.073807   0.304319   0.015164
    12  C    0.000011  -0.000130   0.060241  -0.015292   0.041129   0.293962
    13  C    0.000022  -0.000382   0.007237   0.002860  -0.034168  -0.388153
    14  H   -0.000066  -0.000000   0.000000   0.000000  -0.000000   0.000000
    15  H    0.003002  -0.000001  -0.000000  -0.000000   0.000000  -0.000000
    16  H   -0.005520   0.000550  -0.000000  -0.000000  -0.000000  -0.000000
    17  H    0.004220   0.000909  -0.000000  -0.000000   0.000000   0.000000
    18  H   -0.046007   0.001626  -0.000001   0.000000   0.000000   0.000000
    19  H    0.516217   0.001689  -0.000000  -0.000000   0.000000  -0.000000
    20  H    0.001689   0.240627  -0.000001   0.000004   0.000000  -0.000001
    21  H   -0.000000  -0.000001   0.394321  -0.000086   0.000012  -0.024159
    22  H   -0.000000   0.000004  -0.000086   0.435728  -0.003434  -0.000130
    23  H    0.000000   0.000000   0.000012  -0.003434   0.472158   0.000290
    24  N   -0.000000  -0.000001  -0.024159  -0.000130   0.000290   6.948371
    25  H   -0.000000   0.000000  -0.000087  -0.000100  -0.002960  -0.031877
    26  O    0.000000   0.000000   0.012340   0.000004   0.000051   0.438907
    27  O   -0.000000   0.000000  -0.001525  -0.000005  -0.000037   0.362122
    28  H   -0.000355  -0.000001   0.000000   0.000000   0.000000  -0.000000
    29  H    0.000004   0.007889  -0.000139   0.006758  -0.000008  -0.000127
    30  O   -0.000011   0.002048   0.000005  -0.000984   0.000024  -0.000038
    31  O   -0.000070   0.066633   0.000002   0.000015  -0.000000   0.000001
    32  C    0.000742  -0.009308  -0.000000   0.000198  -0.000057   0.000051
    33  C    0.000114   0.017337  -0.000005   0.000594   0.000000   0.000008
    34  C    0.000002  -0.002798  -0.000000  -0.000040  -0.000001  -0.000001
    35  H    0.000000  -0.000016   0.000000  -0.000002  -0.000000  -0.000000
    36  H   -0.000000  -0.000018  -0.000000  -0.000000  -0.000000  -0.000000
    37  H   -0.000000  -0.000004  -0.000000   0.000000  -0.000000  -0.000000
    38  H    0.000000   0.000000   0.000000  -0.000000   0.000000  -0.000000
    39  H   -0.000000  -0.000004  -0.000000   0.000000  -0.000000  -0.000000
              25         26         27         28         29         30
     1  C    0.000000  -0.000002   0.000000   0.417337   0.000118  -0.000862
     2  C    0.000000   0.000042  -0.000001  -0.061526  -0.001778  -0.007763
     3  C    0.000000  -0.000262   0.000170  -0.010843   0.005467   0.019997
     4  N   -0.000004  -0.000578   0.000064   0.000302   0.017415   0.013695
     5  C    0.000068  -0.005524   0.006636   0.001358  -0.019848   0.006036
     6  O    0.000004  -0.001289   0.000062  -0.000019   0.002814  -0.000540
     7  N   -0.000279   0.000943  -0.000759   0.000032   0.114623  -0.007802
     8  C    0.013803   0.310124   0.105615   0.000006   0.009855  -0.261754
     9  C    0.015006   0.009653   0.087440  -0.000013   0.090398   0.014407
    10  C    0.003056  -0.009664  -0.011275   0.000005  -0.106754   0.167703
    11  C   -0.063179  -0.015168   0.172370   0.000000   0.000230   0.054827
    12  C    0.264401   0.099578  -0.157236   0.000000   0.001981   0.003178
    13  C    0.091664  -0.481125  -0.302655  -0.000000   0.007220   0.002547
    14  H    0.000000  -0.000000   0.000000  -0.026487  -0.000000   0.000000
    15  H   -0.000000   0.000000  -0.000000  -0.032232  -0.000000   0.000000
    16  H   -0.000000  -0.000000   0.000000   0.003863   0.000001   0.000043
    17  H   -0.000000   0.000000   0.000000  -0.004552   0.000002  -0.000014
    18  H   -0.000000   0.000000  -0.000000   0.002916   0.000012   0.000005
    19  H   -0.000000   0.000000  -0.000000  -0.000355   0.000004  -0.000011
    20  H    0.000000   0.000000   0.000000  -0.000001   0.007889   0.002048
    21  H   -0.000087   0.012340  -0.001525   0.000000  -0.000139   0.000005
    22  H   -0.000100   0.000004  -0.000005   0.000000   0.006758  -0.000984
    23  H   -0.002960   0.000051  -0.000037   0.000000  -0.000008   0.000024
    24  N   -0.031877   0.438907   0.362122  -0.000000  -0.000127  -0.000038
    25  H    0.450062  -0.001866   0.013418   0.000000  -0.000000   0.000002
    26  O   -0.001866   7.787780  -0.098944   0.000000   0.000007  -0.000000
    27  O    0.013418  -0.098944   7.881312   0.000000  -0.000001   0.000000
    28  H    0.000000   0.000000   0.000000   0.502580  -0.000000   0.000000
    29  H   -0.000000   0.000007  -0.000001  -0.000000   0.254994   0.081820
    30  O    0.000002  -0.000000   0.000000   0.000000   0.081820   8.631742
    31  O    0.000000  -0.000000   0.000000  -0.000003  -0.000970  -0.195398
    32  C    0.000003   0.000009   0.000011  -0.000031  -0.004502   0.380684
    33  C   -0.000001   0.000002   0.000000  -0.000011   0.011202  -0.232604
    34  C   -0.000000   0.000000  -0.000000   0.000000  -0.001941   0.038815
    35  H    0.000000   0.000000   0.000000  -0.000000  -0.000008  -0.001217
    36  H    0.000000   0.000000   0.000000   0.000000  -0.000003  -0.001503
    37  H   -0.000000   0.000000   0.000000  -0.000000   0.000000   0.000134
    38  H    0.000000   0.000000  -0.000000   0.000000   0.000000  -0.000332
    39  H   -0.000000   0.000000   0.000000  -0.000000  -0.000000   0.000136
              31         32         33         34         35         36
     1  C    0.007991  -0.007037   0.005390  -0.000843  -0.000011   0.000005
     2  C    0.007800  -0.013248  -0.012371   0.003685  -0.000142   0.000104
     3  C   -0.019045   0.015078   0.036989  -0.008094   0.000117  -0.000056
     4  N   -0.037598  -0.002293  -0.035225   0.004366   0.000056  -0.000027
     5  C    0.000517  -0.018796  -0.040285   0.003163  -0.000423  -0.000162
     6  O    0.000178  -0.000999  -0.000911   0.000059  -0.000000  -0.000000
     7  N    0.011974  -0.012401  -0.017499   0.004329  -0.000115   0.000003
     8  C   -0.010966   0.051078  -0.010588  -0.005031  -0.001726  -0.001154
     9  C   -0.008099  -0.011695  -0.024020  -0.000475  -0.000200  -0.000045
    10  C    0.016469  -0.012991   0.013036   0.005407   0.001764   0.001047
    11  C   -0.003216  -0.035366   0.012574  -0.000775   0.000565   0.000294
    12  C    0.000407   0.000138  -0.001519   0.000186   0.000008   0.000013
    13  C   -0.000143  -0.001748  -0.001953   0.000147   0.000008  -0.000000
    14  H   -0.000039  -0.000094   0.000040  -0.000013  -0.000000  -0.000000
    15  H   -0.000017  -0.000043  -0.000014   0.000003   0.000000   0.000000
    16  H   -0.001783  -0.000638   0.000256  -0.000156   0.000000  -0.000000
    17  H   -0.002417  -0.000936  -0.000231  -0.000012   0.000000   0.000000
    18  H    0.000028   0.000523   0.000078   0.000002  -0.000000   0.000000
    19  H   -0.000070   0.000742   0.000114   0.000002   0.000000  -0.000000
    20  H    0.066633  -0.009308   0.017337  -0.002798  -0.000016  -0.000018
    21  H    0.000002  -0.000000  -0.000005  -0.000000   0.000000  -0.000000
    22  H    0.000015   0.000198   0.000594  -0.000040  -0.000002  -0.000000
    23  H   -0.000000  -0.000057   0.000000  -0.000001  -0.000000  -0.000000
    24  N    0.000001   0.000051   0.000008  -0.000001  -0.000000  -0.000000
    25  H    0.000000   0.000003  -0.000001  -0.000000   0.000000   0.000000
    26  O   -0.000000   0.000009   0.000002   0.000000   0.000000   0.000000
    27  O    0.000000   0.000011   0.000000  -0.000000   0.000000   0.000000
    28  H   -0.000003  -0.000031  -0.000011   0.000000  -0.000000   0.000000
    29  H   -0.000970  -0.004502   0.011202  -0.001941  -0.000008  -0.000003
    30  O   -0.195398   0.380684  -0.232604   0.038815  -0.001217  -0.001503
    31  O    8.543343   0.365398  -0.133546   0.045356   0.000440   0.001492
    32  C    0.365398   5.592955  -0.818080   0.005860  -0.083248  -0.072860
    33  C   -0.133546  -0.818080   7.320468  -0.299848   0.442489   0.433891
    34  C    0.045356   0.005860  -0.299848   5.802578  -0.040343  -0.042857
    35  H    0.000440  -0.083248   0.442489  -0.040343   0.496884  -0.029087
    36  H    0.001492  -0.072860   0.433891  -0.042857  -0.029087   0.496422
    37  H   -0.003790  -0.006895  -0.056408   0.419200  -0.003956   0.003606
    38  H    0.002110   0.032433  -0.084345   0.393086  -0.002248  -0.002289
    39  H   -0.004436  -0.009403  -0.054733   0.421008   0.003604  -0.003920
              37         38         39
     1  C    0.000028  -0.000004  -0.000099
     2  C    0.000122  -0.000007  -0.000142
     3  C   -0.000242   0.000008  -0.000172
     4  N   -0.000050   0.000020  -0.000062
     5  C    0.000043   0.000005   0.000020
     6  O   -0.000000   0.000000  -0.000000
     7  N    0.000002  -0.000009   0.000007
     8  C   -0.000065   0.000055  -0.000080
     9  C    0.000001   0.000002  -0.000004
    10  C    0.000070  -0.000050   0.000092
    11  C    0.000008  -0.000005   0.000011
    12  C    0.000000  -0.000000   0.000000
    13  C    0.000000   0.000000   0.000000
    14  H    0.000000   0.000000   0.000000
    15  H   -0.000000  -0.000000  -0.000000
    16  H   -0.000000  -0.000000   0.000001
    17  H    0.000000  -0.000000  -0.000000
    18  H   -0.000000   0.000000  -0.000000
    19  H   -0.000000   0.000000  -0.000000
    20  H   -0.000004   0.000000  -0.000004
    21  H   -0.000000   0.000000  -0.000000
    22  H    0.000000  -0.000000   0.000000
    23  H   -0.000000   0.000000  -0.000000
    24  N   -0.000000  -0.000000  -0.000000
    25  H   -0.000000   0.000000  -0.000000
    26  O    0.000000   0.000000   0.000000
    27  O    0.000000  -0.000000   0.000000
    28  H   -0.000000   0.000000  -0.000000
    29  H    0.000000   0.000000  -0.000000
    30  O    0.000134  -0.000332   0.000136
    31  O   -0.003790   0.002110  -0.004436
    32  C   -0.006895   0.032433  -0.009403
    33  C   -0.056408  -0.084345  -0.054733
    34  C    0.419200   0.393086   0.421008
    35  H   -0.003956  -0.002248   0.003604
    36  H    0.003606  -0.002289  -0.003920
    37  H    0.488690  -0.030056  -0.026197
    38  H   -0.030056   0.535382  -0.029973
    39  H   -0.026197  -0.029973   0.488570
 Mulliken charges:
               1
     1  C   -0.789615
     2  C   -0.346898
     3  C   -0.159024
     4  N   -0.789196
     5  C    0.698950
     6  O   -0.632047
     7  N   -0.698129
     8  C    0.644013
     9  C   -0.021098
    10  C   -0.807182
    11  C   -0.371673
    12  C   -0.065228
    13  C   -0.018051
    14  H    0.208464
    15  H    0.207246
    16  H    0.236536
    17  H    0.238261
    18  H    0.219024
    19  H    0.218879
    20  H    0.526827
    21  H    0.314668
    22  H    0.269986
    23  H    0.223339
    24  N   -0.345298
    25  H    0.248866
    26  O   -0.045018
    27  O   -0.056782
    28  H    0.207674
    29  H    0.523272
    30  O   -0.707024
    31  O   -0.648617
    32  C    0.677504
    33  C   -0.470269
    34  C   -0.744026
    35  H    0.216811
    36  H    0.217104
    37  H    0.215759
    38  H    0.186215
    39  H    0.215776
 Sum of Mulliken charges =  -1.00000
 Mulliken charges with hydrogens summed into heavy atoms:
               1
     1  C   -0.166231
     2  C    0.127900
     3  C    0.278879
     4  N   -0.262370
     5  C    0.698950
     6  O   -0.632047
     7  N   -0.174857
     8  C    0.644013
     9  C    0.293570
    10  C   -0.537196
    11  C   -0.148333
    12  C    0.183638
    13  C   -0.018051
    24  N   -0.345298
    26  O   -0.045018
    27  O   -0.056782
    30  O   -0.707024
    31  O   -0.648617
    32  C    0.677504
    33  C   -0.036355
    34  C   -0.126275
 Electronic spatial extent (au):  <R**2>=           9807.8358
 Charge=             -1.0000 electrons
 Dipole moment (field-independent basis, Debye):
    X=             -1.5347    Y=             -1.9781    Z=             -0.1328  Tot=              2.5071
 Quadrupole moment (field-independent basis, Debye-Ang):
   XX=           -197.4211   YY=           -144.2589   ZZ=           -129.5611
   XY=            -24.2379   XZ=             -0.3519   YZ=              0.1828
 Traceless Quadrupole moment (field-independent basis, Debye-Ang):
   XX=            -40.3407   YY=             12.8215   ZZ=             27.5192
   XY=            -24.2379   XZ=             -0.3519   YZ=              0.1828
 Octapole moment (field-independent basis, Debye-Ang**2):
  XXX=           -178.8533  YYY=            -23.8012  ZZZ=              2.0472  XYY=              5.6521
  XXY=            -37.3472  XXZ=            -15.1591  XZZ=              2.7124  YZZ=              8.9921
  YYZ=              1.1075  XYZ=             -0.4195
 Hexadecapole moment (field-independent basis, Debye-Ang**3):
 XXXX=         -11933.4171 YYYY=          -3664.6880 ZZZZ=           -181.0066 XXXY=           -390.8633
 XXXZ=            -22.4171 YYYX=            -73.8944 YYYZ=              4.7891 ZZZX=              9.6495
 ZZZY=             -0.8179 XXYY=          -2283.1498 XXZZ=          -1610.7700 YYZZ=           -623.6994
 XXYZ=              0.2437 YYXZ=             -7.7513 ZZXY=             33.2324
 N-N= 1.630554571307D+03 E-N=-5.720934856087D+03  KE= 1.037432281110D+03
 D1PCM: PCM CHGder 1st derivatives, ID1Alg=3 FixD1E=F DoIter=F DoCFld=F I1PDM=0.
 Calling FoFJK, ICntrl=      2127 FMM=F ISym2X=0 I1Cent= 0 IOpClX= 0 NMat=1 NMatS=1 NMatT=0.
 ***** Axes restored to original set *****
 -------------------------------------------------------------------
 Center     Atomic                   Forces (Hartrees/Bohr)
 Number     Number              X              Y              Z
 -------------------------------------------------------------------
      1        6          -0.000487048   -0.000203870    0.000349182
      2        6          -0.000305029   -0.000390678   -0.000219773
      3        6          -0.004034854   -0.000606457    0.003453673
      4        7           0.001303578   -0.002781512   -0.003785802
      5        6           0.013468993    0.017523767    0.002110589
      6        8          -0.007678452   -0.009396243   -0.001109412
      7        7          -0.005437489    0.000924640    0.006187771
      8        6           0.002685397   -0.005582492   -0.007313069
      9        6          -0.000433281    0.002477205    0.002032428
     10        6          -0.001996921   -0.001254980    0.001280226
     11        6           0.001268657    0.000813044   -0.000820227
     12        6          -0.001509495   -0.000994227    0.001041624
     13        6           0.000708133   -0.000729535   -0.001403483
     14        1           0.000289701   -0.000224991   -0.000498323
     15        1           0.000650262    0.000152181   -0.000233012
     16        1          -0.001273158    0.000191579   -0.000399224
     17        1           0.000153623   -0.000994326    0.000970456
[...]
 6,-0.00000022,-0.00000003,0.00011615,0.00001501,0.00010228,0.00189240,
 -0.00116355,0.00118878,-0.00105141,-0.00484556,0.00277127,-0.02644048,
 0.01121743,-0.00429450,0.08021908,-0.07296254,0.00296084,0.01825924,-0
 .00720221,0.00114988,-0.09040742,0.08169455,0.00000087,-0.00000358,-0.
 00000111,-0.00000162,0.00000275,0.00000516,0.00002658,-0.00000091,-0.0
 0001990,-0.00000786,-0.00001896,-0.00000505,0.00003536,0.00004883,0.00
 000200,-0.00003399,-0.00004761,-0.00000312,-0.00002198,-0.00010645,-0.
 00006403,-0.00004819,0.00006712,0.00011792,0.00000447,-0.00002393,-0.0
 0002770,0.00003158,0.00000844,-0.00003283,-0.00001365,-0.00000893,0.00
 001866,0.00001148,-0.00000655,-0.00002034,-0.00000722,0.00000425,0.000
 01321,-0.00000468,0.00000255,0.00000587,-0.00000113,0.00000049,0.00000
 023,-0.00000394,-0.00000349,-0.00000756,0.00000813,-0.00000975,-0.0000
 0428,-0.00000088,0.00000201,0.00000482,-0.00000582,0.00000068,0.000000
 87,0.00002297,0.00003874,-0.00002336,-0.00000045,0.00000386,0.00000460
 ,-0.00004378,0.00000884,0.00002994,0.00000347,-0.00000424,-0.00001110,
 -0.00000438,0.00000744,0.00001188,-0.00000111,-0.00000119,-0.00000031,
 0.00000434,-0.00000091,-0.00000630,0.00000322,-0.00000776,-0.00001003,
 0.00000045,0.00000178,-0.00000075,0.00011755,0.00019267,0.00001463,-0.
 00017492,-0.00168148,-0.00071657,-0.00003638,0.00070196,-0.00003508,0.
 00008956,0.00228635,-0.00091870,-0.01528881,0.00384179,-0.04664616,0.0
 2648261,-0.00943516,0.00141974,0.01511762,-0.00230620,0.05085887,-0.00
 000561,-0.00000080,-0.00000891,0.00001334,-0.00000495,0.00002895,0.000
 03140,-0.00000432,-0.00005151,-0.00013206,-0.00032976,-0.00008405,-0.0
 0009431,0.00007906,0.00019106,-0.00000975,-0.00006461,-0.00006106,0.00
 011936,0.00005512,0.00000621,0.00001165,-0.00000737,-0.00002647,-0.000
 00951,0.00000251,0.00000376,-0.00000355,-0.00000437,0.00000870,0.00000
 803,0.00000376,-0.00000867,-0.00000399,0.00000058,0.00000321,0.0000023
 2,-0.00000228,-0.00000415,-0.00000137,0.00000108,0.00000522,-0.0000054
 9,-0.00000370,0.00000291,0.00000423,0.00000230,-0.00000180,0.00000028,
 0.00000612,-0.00002082,-0.00000724,-0.00000503,0.00000973,-0.00001514,
 -0.00000879,0.00000680,0.00022309,0.00053574,0.00003362,0.00000003,-0.
 00000027,0.00000187,0.00001527,0.00001405,-0.00000657,-0.00000119,0.00
 000378,0.00000572,0.00000722,0.00000301,-0.00000187,0.00000126,0.00000
 064,0.00000022,-0.00000614,-0.00000314,0.00000212,-0.00000282,0.000000
 15,0.00000170,-0.00000069,0.00000020,0.00000051,-0.00015903,-0.0000388
 1,-0.00003965,-0.00054360,0.00213738,-0.00092584,-0.00500434,-0.001966
 24,-0.00104091,0.00263368,-0.01282270,0.01939174,-0.04430077,0.0092958
 1,-0.01416419,0.00015301,-0.00430532,0.00615286,-0.00199184,0.01786595
 ,-0.02718301,0.04833642,-0.00000246,-0.00000687,-0.00001483,0.00000883
 ,0.00000573,0.00003534,0.00007065,0.00000012,-0.00009896,-0.00020690,-
 0.00052660,-0.00017412,-0.00012887,0.00022829,0.00035591,-0.00005922,-
 0.00018753,-0.00010963,0.00014439,-0.00008870,-0.00015942,-0.00007936,
 0.00013050,0.00018154,0.00000076,-0.00004868,-0.00004841,0.00004038,-0
 .00000018,-0.00005499,-0.00002455,0.00000253,0.00000976,0.00001923,-0.
 00001234,-0.00003162,-0.00001208,0.00001353,0.00002240,-0.00000614,0.0
 0000636,0.00000871,-0.00001282,-0.00000559,0.00000498,0.00001773,-0.00
 000081,0.00000352,0.00000453,0.00000550,-0.00004759,-0.00000724,-0.000
 01318,0.00001870,-0.00003179,-0.00001499,0.00001092,0.00041954,0.00079
 060,0.00007094,-0.00000172,0.00000779,0.00001393,-0.00001517,-0.000007
 06,0.00005485,0.00001156,-0.00000824,-0.00000799,-0.00000727,0.0000080
 4,0.00001946,0.00000112,-0.00000205,0.00000114,0.00000596,-0.00000099,
 -0.00001061,0.00000370,-0.00001054,-0.00001616,-0.00000161,-0.00000509
 ,0.00000563,-0.00002204,0.00016413,0.00000510,-0.00154695,0.00121602,-
 0.00355116,-0.00533163,-0.00246033,-0.00127453,0.00621333,-0.01226114,
 0.02485643,0.01164747,-0.12432954,0.12052167,-0.00173398,0.01136725,-0
 .01897169,0.00055140,-0.00626703,0.00858055,-0.01034311,0.13271548,0.0
 0000621,0.00000100,0.00000939,-0.00003820,-0.00000041,-0.00002667,0.00
 000539,0.00000611,0.00000204,0.00007554,0.00013758,0.00010276,0.000100
 74,-0.00005742,-0.00018189,-0.00000811,0.00003697,0.00005049,-0.000065
 81,0.00000334,0.00007160,0.00000745,-0.00002995,-0.00003633,0.00000020
 ,0.00001349,0.00001630,0.00000079,0.00001235,0.00001240,0.00000450,-0.
 00000499,0.00000200,-0.00000477,0.00000072,0.00000626,0.00000127,-0.00
 001154,-0.00001086,-0.00000723,0.00000118,-0.00000058,0.00001098,0.000
 00598,0.00000066,0.00000415,-0.00000390,0.00000068,0.00000800,-0.00000
 669,0.00001437,-0.00000248,-0.00000323,0.00000174,0.00000882,0.0000090
 4,0.00000245,-0.00013831,-0.00015508,-0.00006556,-0.00000001,-0.000000
 95,-0.00000702,-0.00001083,0.00001899,0.00000984,-0.00000422,0.0000027
 9,0.00000198,0.00001120,0.00001504,-0.00000424,-0.00000120,0.00000071,
 -0.00000118,-0.00000764,-0.00000810,0.00000548,-0.00000225,-0.00000434
 ,0.00000189,-0.00000285,-0.00000376,0.00000018,0.00008412,0.00006273,0
 .00001133,-0.00072634,-0.00119031,0.00069122,-0.00009138,0.00115158,0.
 00099596,0.00127673,-0.00279031,-0.00044022,-0.01568221,0.11988278,-0.
 23554265,-0.00221067,0.01336272,-0.02128501,-0.00045062,0.00122077,-0.
 00192370,0.01659330,-0.12796989,0.25897499,0.00001188,0.00000094,0.000
 02031,-0.00007179,-0.00000188,-0.00004372,0.00002452,-0.00001305,0.000
 00590,0.00004383,0.00013642,0.00006995,0.00004553,-0.00009791,-0.00012
 239,0.00001646,0.00007276,0.00003726,-0.00003516,0.00005643,0.00008224
 ,0.00003345,-0.00004176,-0.00006999,0.00000206,0.00001897,0.00001663,-
 0.00002176,-0.00000559,0.00001429,0.00000588,0.00000173,-0.00000624,-0
 .00000741,0.00000625,0.00001322,0.00000523,0.00000139,-0.00000715,-0.0
 0001434,0.00000120,0.00000146,0.00001841,0.00001053,-0.00000044,0.0000
 0206,-0.00000072,-0.00000229,0.00001815,-0.00002823,0.00002479,-0.0000
 0275,0.00000408,-0.00000333,0.00000617,0.00001660,0.00000826,-0.000128
 35,-0.00016245,-0.00002638,0.00000172,-0.00000373,-0.00000466,0.000007
 88,-0.00001163,-0.00001202,-0.00000128,-0.00000117,0.00000252,0.000000
 27,-0.00001628,-0.00001258,0.00000049,0.00000042,0.00000065,-0.0000000
 8,0.00000580,0.00000438,-0.00000228,0.00001083,0.00001066,-0.00000384,
 -0.00000087,-0.00000424,-0.00003890,-0.00008036,-0.00003149,-0.0002892
 4,0.00018664,0.00034033,-0.00054125,0.00017446,0.00042438,0.00056546,0
 .00002491,-0.00121176,0.00029535,-0.00443998,0.00745644,-0.04980599,0.
 01189116,-0.01861286,0.00015006,-0.00063664,-0.00000994,0.00042559,0.0
 0096027,0.00141385,0.04955638,-0.00000081,0.00000818,0.00000662,0.0000
 0247,-0.00001090,-0.00000538,-0.00003534,-0.00000063,0.00003595,0.0000
 6248,0.00010200,0.00002118,-0.00000187,-0.00007157,-0.00004891,0.00003
 056,0.00006105,0.00001405,0.00000793,0.00006118,0.00003872,0.00002853,
 -0.00003103,-0.00005675,0.00000079,0.00001216,0.00000996,-0.00001579,-
 0.00000892,0.00001408,0.00000593,0.00000111,-0.00000700,-0.00000473,0.
 00000441,0.00001011,0.00000506,0.00000534,-0.00000237,0.00001012,-0.00
 000679,-0.00000531,0.00000206,-0.00000174,-0.00000423,-0.00000336,0.00
 000215,0.00000097,-0.00001158,0.00001168,0.00001968,0.00000107,0.00000
 409,-0.00000821,0.00000946,0.00000150,-0.00000269,-0.00011988,-0.00015
 695,-0.00001379,-0.00000017,-0.00000311,-0.00000236,0.00000695,-0.0000
 0396,-0.00001292,-0.00000137,-0.00000038,0.00000100,-0.00000804,-0.000
 02435,-0.00001158,0.00000007,0.00000022,0.00000038,0.00000545,0.000010
 20,0.00000229,0.00000022,0.00001297,0.00001016,0.00000053,0.00000457,-
 0.00000241,-0.00004815,-0.00009019,-0.00001457,0.00013565,0.00024592,0
 .00052478,0.00005156,-0.00131357,-0.00016349,-0.00043848,0.00027805,-0
 .00064636,-0.00184390,0.01160380,-0.01777283,0.01262954,-0.12545234,0.
 12502890,-0.00015784,0.00099210,0.00084808,0.00042972,-0.00202122,-0.0
 0382473,-0.01442392,0.13551008,0.00000647,0.00000315,0.00000824,-0.000
 03622,-0.00000347,-0.00002067,0.00000819,0.00000668,-0.00001177,0.0000
 3365,0.00006699,0.00007453,0.00007198,-0.00004633,-0.00014880,-0.00001
 129,0.00001558,0.00004292,-0.00008113,-0.00007501,0.00006568,0.0000017
 9,-0.00003193,-0.00003459,-0.00000131,0.00001046,0.00001408,0.00000859
 ,0.00000952,0.00001549,0.00000365,-0.00000417,0.00000033,-0.00000380,-
 0.00000084,0.00000663,0.00000034,-0.00001354,-0.00001250,-0.00000496,0
 .00000072,-0.00000060,0.00000954,0.00000441,-0.00000034,0.00000678,-0.
 00000362,0.00000313,-0.00000274,-0.00000639,0.00001204,-0.00000495,-0.
 00000708,0.00000514,0.00000485,0.00000659,0.00000542,-0.00009064,-0.00
 007237,-0.00002598,-0.00000009,-0.00000037,-0.00000652,-0.00000613,0.0
 0001709,-0.00000317,-0.00000453,0.00000505,0.00000221,0.00001295,0.000
 01978,-0.00000265,-0.00000119,0.00000068,-0.00000164,-0.00000906,-0.00
 001041,0.00000531,-0.00000243,-0.00000692,0.00000021,-0.00000291,-0.00
 000422,0.00000182,0.00006743,0.00011216,-0.00000812,-0.00068668,-0.000
 48243,0.00085011,-0.00070435,0.00002174,0.00204202,0.00235562,0.001815
 88,-0.00180509,-0.00281610,0.01394099,-0.02294701,-0.01921672,0.122793
 05,-0.24141442,0.00033795,0.00022151,0.00104578,0.00155532,-0.00407205
 ,-0.00323908,0.01851412,-0.13317006,0.26383502,0.00000145,-0.00000776,
 -0.00001139,0.00001622,0.00001074,0.00000712,0.00000710,0.00000945,-0.
 00002811,-0.00006981,-0.00016959,-0.00005466,-0.00002313,0.00013568,0.
 00012983,-0.00003484,-0.00010081,-0.00003790,0.00003836,-0.00005549,-0
 .00008635,-0.00004221,0.00004779,0.00008405,-0.00000233,-0.00002127,-0
 .00001508,0.00002235,0.00001098,-0.00001872,-0.00000865,0.00000003,0.0
 0000887,0.00000827,-0.00000668,-0.00001562,-0.00000895,-0.00000762,0.0
 0000371,0.00000353,0.00000500,-0.00000100,-0.00001282,-0.00000600,0.00
 000175,0.00002210,-0.00000034,0.00001475,-0.00001021,0.00002110,-0.000
 02805,0.00000178,-0.00001225,0.00000722,-0.00001192,-0.00001059,-0.000
 00130,0.00017166,0.00022988,0.00001361,-0.00000043,0.00000494,0.000005
 00,-0.00000499,0.00001183,0.00001889,0.00000267,0.00000144,0.00000003,
 0.00000868,0.00003724,0.00002216,0.00000028,-0.00000091,-0.00000021,-0
 .00000623,-0.00001418,-0.00000571,0.00000090,-0.00002067,-0.00001883,-
 0.00000095,-0.00000706,0.00000839,0.00004132,0.00010201,0.00004699,0.0
 0051362,0.00020283,-0.00037610,0.00065043,-0.00116229,-0.00113130,-0.0
 0122395,0.00052854,0.00274408,0.00534451,0.00847089,0.00087313,-0.1520
 9404,-0.12836433,-0.00890282,0.00052745,-0.00022829,-0.00059590,0.0000
 2162,-0.00039479,-0.00056855,0.00166095,0.00355111,0.00095867,0.161918
 57,-0.00000345,-0.00000193,-0.00001410,0.00001919,0.00000189,0.0000298
 9,0.00006395,0.00001560,-0.00008619,-0.00016794,-0.00022420,-0.0000427
 8,0.00011259,0.00018616,0.00002163,-0.00012903,-0.00020441,-0.00001427
 ,-0.00016913,-0.00040969,-0.00015300,-0.00013543,0.00010921,0.00023659
 ,-0.00000060,-0.00005166,-0.00004262,0.00008649,0.00004871,-0.00005144
 ,-0.00003073,-0.00001078,0.00002511,0.00002156,-0.00002217,-0.00004127
 ,-0.00002424,-0.00002622,0.00000376,-0.00000392,0.00000746,0.00000910,
 -0.00001336,-0.00000611,0.00000291,0.00000761,-0.00000348,-0.00000117,
 0.00000597,0.00000571,-0.00003418,-0.00000557,-0.00001179,0.00002243,-
 0.00002410,-0.00001366,0.00000584,0.00030915,0.00036461,0.00002278,0.0
 0000044,0.00000985,0.00000739,-0.00003704,0.00004072,0.00006880,0.0000
 0560,0.00000343,-0.00000484,0.00002737,0.00009095,0.00004601,-0.000001
 42,-0.00000345,-0.00000195,-0.00001858,-0.00003628,-0.00001021,0.00000
 111,-0.00005001,-0.00004203,0.00000078,-0.00000473,0.00000569,0.000399
 26,0.00063906,0.00009793,-0.00087286,-0.00284068,-0.00190239,-0.000660
 58,-0.00061000,-0.00048881,0.00267146,0.00189434,-0.00168076,-0.012292
 71,-0.01421997,0.00129026,-0.12795512,-0.20995772,-0.00940541,0.000349
 85,0.00008991,0.00056836,0.00003978,0.00083557,-0.00014378,-0.01056279
 ,-0.01330905,-0.00180361,0.14232743,0.22735863,0.00000344,0.00000412,0
 .00000420,-0.00002676,-0.00000761,-0.00000210,0.00004773,0.00000881,-0
 .00004651,-0.00005753,-0.00003497,0.00003453,0.00013141,0.00002736,-0.
 00012554,-0.00008394,-0.00008146,0.00002875,-0.00019992,-0.00033059,-0
 .00004468,-0.00008189,0.00005039,0.00012929,0.00000192,-0.00002561,-0.
 00002308,0.00005458,0.00003593,-0.00003041,-0.00002065,-0.00000943,0.0
 0001313,0.00001036,-0.00001283,-0.00002246,-0.00001266,-0.00001694,-0.
 00000060,-0.00000700,0.00000264,0.00000516,0.00000283,0.00000080,0.000
 00059,0.00000712,-0.00000169,-0.00000099,0.00000482,-0.00000708,-0.000
 00560,-0.00000708,-0.00000651,0.00001193,-0.00000868,-0.00000009,0.000
 00805,0.00007309,0.00009584,-0.00000713,0.00000136,0.00000359,0.000001
 78,-0.00002535,0.00002218,0.00004759,0.00000411,0.00000025,-0.00000281
 ,0.00001723,0.00004533,0.00001972,-0.00000081,-0.00000288,-0.00000084,
 -0.00001139,-0.00001863,-0.00000372,-0.00000077,-0.00002419,-0.0000198
 9,-0.00000229,-0.00000255,0.00000089,0.00033246,0.00049292,0.00003769,
 -0.00142298,-0.00298083,-0.00132011,-0.00061740,0.00023961,0.00159375,
 0.00485537,0.00072461,-0.00422276,-0.01900547,-0.02229115,-0.00091748,
 -0.00860056,-0.00898704,-0.04932656,0.00028296,0.00073336,0.00102743,-
 0.00047349,0.00085536,0.00071894,0.01870857,0.02056762,0.00312200,0.00
 778472,0.01289984,0.05084339,-0.00000012,0.00000438,0.00000395,-0.0000
 0089,0.00000470,-0.00001068,-0.00003482,0.00000405,0.00002833,0.000067
 36,0.00002709,-0.00000023,-0.00006635,-0.00001932,0.00003604,0.0000435
 7,0.00003873,-0.00000455,0.00008522,0.00009072,0.00001833,0.00002021,-
 0.00000210,-0.00003382,0.00000389,0.00000320,0.00000103,-0.00001231,-0
 .00002093,0.00001054,0.00000750,0.00000056,-0.00000258,-0.00000011,0.0
 0000336,0.00000671,0.00000450,0.00001459,0.00000682,0.00000626,-0.0000
 0463,-0.00000893,0.00000137,0.00000027,-0.00000127,0.00000342,0.000001
 07,0.00000621,-0.00000374,0.00001218,0.00000813,0.00000372,-0.00000209
 ,-0.00000584,0.00000831,0.00000185,-0.00000387,-0.00009215,-0.00007694
 ,-0.00002349,-0.00000344,0.00000002,-0.00000105,-0.00000125,-0.0000084
 7,-0.00002118,-0.00000198,-0.00000102,-0.00000433,-0.00001908,-0.00003
 437,-0.00001205,-0.00000126,0.00000151,-0.00000054,0.00001375,0.000014
 59,0.00000104,0.00000383,0.00001549,0.00001163,0.00000036,-0.00000265,
 0.00000186,-0.00010880,-0.00014740,-0.00002980,0.00053546,0.00051188,-
 0.00009853,0.00067587,-0.00058145,-0.00083806,-0.00130622,-0.00144464,
 0.00083933,-0.00570944,0.00266612,-0.00023499,-0.28881701,0.08788946,-
 0.01687015,0.00104131,0.00025607,0.00152940,0.00029066,-0.00015114,0.0
 0041042,-0.00193340,0.00013794,-0.00027067,-0.01742837,0.00665900,-0.0
 0165747,0.31272419,-0.00000290,0.00001153,0.00001410,-0.00001637,-0.00
 001838,-0.00000052,0.00002340,-0.00001786,0.00001010,0.00002765,0.0001
 9474,0.00007669,0.00009273,-0.00013813,-0.00018798,0.00000545,0.000090
 38,0.00004880,-0.00009095,0.00002852,0.00009619,0.00003848,-0.00006289
 ,-0.00008516,-0.00000224,0.00002669,0.00002182,-0.00002230,0.00000469,
 0.00001743,0.00000580,0.00000051,-0.00000858,-0.00001122,0.00000691,0.
 00001480,0.00000685,-0.00000770,-0.00001256,-0.00000898,-0.00000302,0.
 00000763,0.00001517,0.00000717,-0.00000237,-0.00003990,0.00000179,-0.0
 0002826,0.00002420,-0.00003791,0.00003478,-0.00000498,0.00002007,-0.00
 000333,0.00000619,0.00001188,0.00000485,-0.00013986,-0.00022415,-0.000
 01230,0.00000401,-0.00000617,-0.00000568,0.00001295,-0.00000445,-0.000
 00556,-0.00000179,0.00000042,0.00000580,0.00000844,-0.00000743,-0.0000
 1181,0.00000081,-0.00000023,0.00000071,-0.00000615,0.00000176,0.000005
 60,-0.00000434,0.00000800,0.00000944,0.00000289,0.00001142,-0.00001373
 ,0.00001023,-0.00002495,-0.00001919,-0.00073488,0.00009044,0.00064797,
 -0.00127453,0.00016003,0.00104832,0.00256778,0.00044664,-0.00122810,0.
 01791612,-0.00710895,0.00171618,0.08581542,-0.07855806,0.00660195,0.00
 037040,-0.00172869,-0.00355044,-0.00056115,0.00078123,0.00026351,0.016
 94718,-0.00642604,0.00074278,-0.02511799,0.01031620,-0.00196848,-0.095
 86165,0.08215402,-0.00000703,0.00000951,-0.00000539,0.00003482,-0.0000
 1390,0.00001546,-0.00002963,0.00000632,0.00001980,0.00000032,0.0000029
 5,-0.00001965,0.00000527,-0.00000360,0.00000489,-0.00000132,-0.0000025
 9,-0.00000561,-0.00001217,-0.00001575,-0.00001666,-0.00000272,-0.00000
 398,-0.00000117,-0.00000157,-0.00000082,0.00000115,0.00000005,0.000007
 63,-0.00000216,-0.00000160,0.00000002,-0.00000211,-0.00000101,-0.00000
 057,-0.00000152,-0.00000033,-0.00000319,-0.00000201,0.00001386,-0.0000
 0350,-0.00000812,-0.00000759,-0.00000723,-0.00000137,0.00000150,0.0000
 0673,0.00001216,-0.00002332,0.00002631,-0.00000747,0.00000178,-0.00000
 261,-0.00000363,0.00000171,-0.00000900,-0.00000475,-0.00000183,-0.0000
 0631,0.00000773,0.00000063,-0.00000103,0.00000094,0.00000789,0.0000037
 8,0.00000929,0.00000131,0.00000010,0.00000282,0.00000233,0.00000334,0.
 00000233,0.00000053,-0.00000088,0.00000036,-0.00000181,-0.00000116,-0.
 00000054,-0.00000048,-0.00000154,-0.00000214,0.00000198,-0.00000155,0.
 00000094,0.00002180,0.00003237,0.00001242,-0.00035128,0.00019560,-0.00
 002526,-0.00031623,0.00009943,0.00017920,0.00073078,0.00046272,0.00031
 429,0.02710496,-0.01001527,0.00174793,-0.01766840,0.00709461,-0.048476
 12,0.00100919,-0.00381022,-0.00410363,0.00009743,0.00097679,0.00106005
 ,-0.02698874,0.00862142,-0.00147515,-0.00083540,0.00060050,-0.00152553
 ,0.01721433,-0.00424543,0.05229819\\-0.00000096,0.00000168,0.00000769,
 0.00000814,0.00000165,0.00000948,0.00000077,-0.00000161,0.00000633,0.0
 0001179,-0.00002292,-0.00002124,0.00001022,0.00000774,0.00000363,0.000
 00424,0.00002062,0.00001662,0.00000090,0.00001665,0.00000330,0.0000017
 6,-0.00000091,0.00000668,0.00000132,-0.00000686,0.00000182,-0.00000871
 ,0.00000354,-0.00000098,0.00000308,-0.00000250,-0.00000583,0.00000730,
 0.00000297,-0.00000531,-0.00001412,0.00000572,-0.00000208,0.00000251,0
 .00000154,0.00000512,0.00000230,0.00000002,0.00000466,-0.00000166,-0.0
 0000324,0.00000191,0.00000190,-0.00000045,-0.00000458,-0.00000114,0.00
 000393,0.00000790,0.00000080,0.00000053,0.00000595,0.00000210,0.000002
 13,-0.00000320,0.00000116,-0.00000140,-0.00000067,-0.00000139,0.000003
 89,0.00000031,-0.00000322,0.00000070,-0.00000261,0.00004126,-0.0000191
 3,0.00003892,-0.00000450,0.00000310,0.00000500,0.00000067,0.00000154,-
 0.00002718,-0.00004167,-0.00001608,-0.00000066,0.00000598,0.00000055,0
 .00000280,-0.00001044,-0.00001959,0.00000109,-0.00000315,-0.00001597,-
 0.00000480,0.00000977,-0.00000455,0.00000389,-0.00001528,0.00001814,-0
 .00002084,0.00000114,-0.00001170,0.00000233,-0.00000930,0.00000931,-0.
 00001012,0.00000075,0.00000484,-0.00000916,-0.00000397,-0.00000023,-0.
 00000054,-0.00000193,0.00000507,-0.00000866,0.00000099,0.00000946,-0.0
 0000294,0.00000060,0.00000186,-0.00000402\\\@


 IT MATTERS NOT HOW DEEP YOU PLOW,
 BUT HOW LONG YOU STAY IN THE FURROW.
 Job cpu time:       0 days  5 hours 53 minutes 54.8 seconds.
 File lengths (MBytes):  RWF=    950 Int=      0 D2E=      0 Chk=     26 Scr=      1
 Normal termination of Gaussian 09 at Wed Feb 20 12:42:10 2019.
WARNING: pbs_rusage is deprecated and values produced may not be accurate


=============================================================================
                                     Resource usage:
                                       CPU time:              29:34:17
   JobId:    5912522.r-man2            Elapsed time:          03:43:46
   Project:             q95            Requested time:        42:00:00
   Service Units:     29.84 
                                       Max physical memory:     1559MB
                                       Max virtual memory:      2838MB
                                       Requested memory:           0MB

                                       Number of cpus:               8

                                       Max jobfs disk use:       0.9GB
                                       Requested jobfs:         20.0GB
=============================================================================

