 Entering Gaussian System, Link 0=/apps/gaussian/g09e01/g09/g09
 AtFile(1): /home/507/hio507/Basis/6-31pGd.gbs
 Initial command:
 /apps/gaussian/g09e01/g09/l1.exe "/jobfs/local/5874801.r-man2/Gau-42484.inp" -scrdir="/jobfs/local/5874801.r-man2/"
 Entering Link 1 = /apps/gaussian/g09e01/g09/l1.exe PID=     42485.
  
 Copyright (c) 1988,1990,1992,1993,1995,1998,2003,2009,2015,
            Gaussian, Inc.  All Rights Reserved.
  
 This is part of the Gaussian(R) 09 program.  It is based on
 the Gaussian(R) 03 system (copyright 2003, Gaussian, Inc.),
 the Gaussian(R) 98 system (copyright 1998, Gaussian, Inc.),
 the Gaussian(R) 94 system (copyright 1995, Gaussian, Inc.),
 the Gaussian 92(TM) system (copyright 1992, Gaussian, Inc.),
 the Gaussian 90(TM) system (copyright 1990, Gaussian, Inc.),
 the Gaussian 88(TM) system (copyright 1988, Gaussian, Inc.),
 the Gaussian 86(TM) system (copyright 1986, Carnegie Mellon
 University), and the Gaussian 82(TM) system (copyright 1983,
 Carnegie Mellon University). Gaussian is a federally registered
 trademark of Gaussian, Inc.
  
 This software contains proprietary and confidential information,
 including trade secrets, belonging to Gaussian, Inc.
  
 This software is provided under written license and may be
 used, copied, transmitted, or stored only in accord with that
 written license.
  
 The following legend is applicable only to US Government
 contracts under FAR:
  
                    RESTRICTED RIGHTS LEGEND
  
 Use, reproduction and disclosure by the US Government is
 subject to restrictions as set forth in subparagraphs (a)
 and (c) of the Commercial Computer Software - Restricted
 Rights clause in FAR 52.227-19.
  
 Gaussian, Inc.
 340 Quinnipiac St., Bldg. 40, Wallingford CT 06492
  
  
 ---------------------------------------------------------------
 Warning -- This program may not be used in any manner that
 competes with the business of Gaussian, Inc. or will provide
 assistance to any competitor of Gaussian, Inc.  The licensee
 of this program is prohibited from giving any competitor of
 Gaussian, Inc. access to this program.  By using this program,
 the user acknowledges that Gaussian, Inc. is engaged in the
 business of creating and licensing software in the field of
 computational chemistry and represents and warrants to the
 licensee that it is not a competitor of Gaussian, Inc. and that
 it will not use this program in any manner prohibited above.
 ---------------------------------------------------------------
  

 Cite this work as:
 Gaussian 09, Revision E.01,
 M. J. Frisch, G. W. Trucks, H. B. Schlegel, G. E. Scuseria, 
 M. A. Robb, J. R. Cheeseman, G. Scalmani, V. Barone, B. Mennucci, 
 G. A. Petersson, H. Nakatsuji, M. Caricato, X. Li, H. P. Hratchian, 
 A. F. Izmaylov, J. Bloino, G. Zheng, J. L. Sonnenberg, M. Hada, 
 M. Ehara, K. Toyota, R. Fukuda, J. Hasegawa, M. Ishida, T. Nakajima, 
 Y. Honda, O. Kitao, H. Nakai, T. Vreven, J. A. Montgomery, Jr., 
 J. E. Peralta, F. Ogliaro, M. Bearpark, J. J. Heyd, E. Brothers, 
 K. N. Kudin, V. N. Staroverov, T. Keith, R. Kobayashi, J. Normand, 
 K. Raghavachari, A. Rendell, J. C. Burant, S. S. Iyengar, J. Tomasi, 
 M. Cossi, N. Rega, J. M. Millam, M. Klene, J. E. Knox, J. B. Cross, 
 V. Bakken, C. Adamo, J. Jaramillo, R. Gomperts, R. E. Stratmann, 
 O. Yazyev, A. J. Austin, R. Cammi, C. Pomelli, J. W. Ochterski, 
 R. L. Martin, K. Morokuma, V. G. Zakrzewski, G. A. Voth, 
 P. Salvador, J. J. Dannenberg, S. Dapprich, A. D. Daniels, 
 O. Farkas, J. B. Foresman, J. V. Ortiz, J. Cioslowski, 
 and D. J. Fox, Gaussian, Inc., Wallingford CT, 2013.
 
 ******************************************
 Gaussian 09:  ES64L-G09RevE.01 30-Nov-2015
                19-Feb-2019 
 ******************************************
 %chk=3Nitro_EtO.M062X_6-31pGd_opt_water.chk
 %mem=196608000
 %nproc=8
 Will use up to    8 processors via shared memory.
 ----------------------------------------------------------------------
 # M062X/Gen 6D SCF=Tight INT(grid=ultrafine) OPT IOP(2/17=4) SCRF=(SMD
 ,Solvent=h2o) maxdisk=2684354560
 ----------------------------------------------------------------------
 1/14=-1,18=20,19=15,26=4,38=1/1,3;
 2/9=110,12=2,17=4,18=5,40=1/2;
 3/5=7,8=2,11=2,16=1,25=1,30=1,70=32201,71=1,72=1,74=-55,75=-5/1,2,3;
 4//1;
 5/5=2,32=2,38=5,53=1/2;
 6/7=2,8=2,9=2,10=2,28=1/1;
 7//1,2,3,16;
 1/14=-1,18=20,19=15,26=4/3(2);
 2/9=110,17=4/2;
 99//99;
 2/9=110,17=4/2;
 3/5=7,6=1,8=2,11=2,16=1,25=1,30=1,70=32205,71=1,72=1,74=-55,75=-5,82=7/1,2,3;
 4/5=5,16=3,69=1/1;
 5/5=2,32=2,38=5,53=1/2;
 7//1,2,3,16;
 1/14=-1,18=20,19=15,26=4/3(-5);
 2/9=110,17=4/2;
 6/7=2,8=2,9=2,10=2,19=2,28=1/1;
 99/9=1/99;
 ----------------------------------
 3Nitro_EtO.M062X_6-31pGd_opt_water
 ----------------------------------
 Symbolic Z-matrix:
 Charge = -1 Multiplicity = 1
 C                     11.98789   0.25424  -7.41846 
 C                     10.85795  -0.04374  -6.43704 
 C                     10.70043   1.08669  -5.41468 
 N                     9.62995   0.79959  -4.47376 
 C                     9.31103   1.66883  -3.47111 
 O                     9.93981   2.70974  -3.36843 
 N                     8.30482   1.35547  -2.59254 
 C                     7.8251    2.14837  -1.4854 
 C                     8.24821   3.47322  -1.20454 
 C                     6.86519   1.5733   -0.63049 
 C                     6.35084   2.27515   0.45802 
 C                     6.77718   3.57305   0.72172 
 C                     7.72967   4.1919   -0.1051 
 H                     12.07898  -0.57954  -8.14603 
 H                     12.95196   0.35994  -6.87655 
 H                     11.08354  -0.99473  -5.90707 
 H                     9.91007  -0.16539  -7.00517 
 H                     10.4731   2.03457  -5.95077 
 H                     11.65466   1.20671  -4.85546 
 H                     9.04678  -0.17568  -4.58074 
 H                     8.96569   3.9838   -1.81617 
 H                     6.50667   0.56723  -0.79675 
 H                     5.61565   1.80868   1.10137 
 N                     8.16132   5.52942   0.16499 
 H                     6.3588    4.09424   1.57334 
 O                     8.96902   6.06056  -0.53661 
 O                     7.71691   6.13293   1.09493 
 H                     11.77823   1.19189  -7.97609 
 H                     7.79333   0.34192  -2.75 
 O                     6.55471  -1.27417  -3.16488 
 O                     7.7814   -1.77358  -4.95642 
 C                     6.74025  -2.00678  -4.12706 
 C                     5.79806  -3.15494  -4.36721 
 C                     6.15588  -3.96188  -5.61324 
 H                     4.76814  -2.7547   -4.48506 
 H                     5.81958  -3.8281   -3.48336 
 H                     6.11577  -3.3151   -6.51582 
 H                     5.42874  -4.79156  -5.73973 
 H                     7.1745   -4.39422  -5.51521 
 
 Add virtual bond connecting atoms O30        and H29        Dist= 3.93D+00.
 Add virtual bond connecting atoms O31        and H20        Dist= 3.92D+00.

 GradGradGradGradGradGradGradGradGradGradGradGradGradGradGradGradGradGrad
 Berny optimization.
 Initialization pass.
                           ----------------------------
                           !    Initial Parameters    !
                           ! (Angstroms and Degrees)  !
 --------------------------                            --------------------------
 ! Name  Definition              Value          Derivative Info.                !
 --------------------------------------------------------------------------------
 ! R1    R(1,2)                  1.526          estimate D2E/DX2                !
 ! R2    R(1,14)                 1.1103         estimate D2E/DX2                !
 ! R3    R(1,15)                 1.111          estimate D2E/DX2                !
 ! R4    R(1,28)                 1.1109         estimate D2E/DX2                !
 ! R5    R(2,3)                  1.5323         estimate D2E/DX2                !
 ! R6    R(2,16)                 1.1118         estimate D2E/DX2                !
 ! R7    R(2,17)                 1.1118         estimate D2E/DX2                !
 ! R8    R(3,4)                  1.4539         estimate D2E/DX2                !
 ! R9    R(3,18)                 1.1125         estimate D2E/DX2                !
 ! R10   R(3,19)                 1.1125         estimate D2E/DX2                !
 ! R11   R(4,5)                  1.3648         estimate D2E/DX2                !
 ! R12   R(4,20)                 1.1414         estimate D2E/DX2                !
 ! R13   R(5,6)                  1.2204         estimate D2E/DX2                !
 ! R14   R(5,7)                  1.3721         estimate D2E/DX2                !
 ! R15   R(7,8)                  1.4438         estimate D2E/DX2                !
 ! R16   R(7,29)                 1.1462         estimate D2E/DX2                !
 ! R17   R(8,9)                  1.4188         estimate D2E/DX2                !
 ! R18   R(8,10)                 1.4082         estimate D2E/DX2                !
 ! R19   R(9,13)                 1.4121         estimate D2E/DX2                !
 ! R20   R(9,21)                 1.0722         estimate D2E/DX2                !
 ! R21   R(10,11)                1.3936         estimate D2E/DX2                !
 ! R22   R(10,22)                1.0809         estimate D2E/DX2                !
 ! R23   R(11,12)                1.3913         estimate D2E/DX2                !
 ! R24   R(11,23)                1.0826         estimate D2E/DX2                !
 ! R25   R(12,13)                1.4049         estimate D2E/DX2                !
 ! R26   R(12,25)                1.0826         estimate D2E/DX2                !
 ! R27   R(13,24)                1.4312         estimate D2E/DX2                !
 ! R28   R(20,31)                2.0726         estimate D2E/DX2                !
 ! R29   R(24,26)                1.1945         estimate D2E/DX2                !
 ! R30   R(24,27)                1.1944         estimate D2E/DX2                !
 ! R31   R(29,30)                2.078          estimate D2E/DX2                !
 ! R32   R(30,32)                1.2235         estimate D2E/DX2                !
 ! R33   R(31,32)                1.3514         estimate D2E/DX2                !
 ! R34   R(32,33)                1.5045         estimate D2E/DX2                !
 ! R35   R(33,34)                1.527          estimate D2E/DX2                !
 ! R36   R(33,35)                1.1112         estimate D2E/DX2                !
 ! R37   R(33,36)                1.1112         estimate D2E/DX2                !
 ! R38   R(34,37)                1.1111         estimate D2E/DX2                !
 ! R39   R(34,38)                1.1105         estimate D2E/DX2                !
 ! R40   R(34,39)                1.1109         estimate D2E/DX2                !
 ! A1    A(2,1,14)             109.605          estimate D2E/DX2                !
 ! A2    A(2,1,15)             110.3292         estimate D2E/DX2                !
 ! A3    A(2,1,28)             110.3585         estimate D2E/DX2                !
 ! A4    A(14,1,15)            108.6557         estimate D2E/DX2                !
 ! A5    A(14,1,28)            108.6858         estimate D2E/DX2                !
 ! A6    A(15,1,28)            109.1666         estimate D2E/DX2                !
 ! A7    A(1,2,3)              111.1716         estimate D2E/DX2                !
 ! A8    A(1,2,16)             108.865          estimate D2E/DX2                !
 ! A9    A(1,2,17)             108.9059         estimate D2E/DX2                !
 ! A10   A(3,2,16)             109.5022         estimate D2E/DX2                !
 ! A11   A(3,2,17)             109.5136         estimate D2E/DX2                !
 ! A12   A(16,2,17)            108.8434         estimate D2E/DX2                !
 ! A13   A(2,3,4)              111.2121         estimate D2E/DX2                !
 ! A14   A(2,3,18)             109.1523         estimate D2E/DX2                !
 ! A15   A(2,3,19)             109.0745         estimate D2E/DX2                !
 ! A16   A(4,3,18)             109.2493         estimate D2E/DX2                !
 ! A17   A(4,3,19)             109.1191         estimate D2E/DX2                !
 ! A18   A(18,3,19)            109.0012         estimate D2E/DX2                !
 ! A19   A(3,4,5)              121.4501         estimate D2E/DX2                !
 ! A20   A(3,4,20)             118.9661         estimate D2E/DX2                !
 ! A21   A(5,4,20)             119.5839         estimate D2E/DX2                !
 ! A22   A(4,5,6)              118.9895         estimate D2E/DX2                !
 ! A23   A(4,5,7)              119.758          estimate D2E/DX2                !
 ! A24   A(6,5,7)              121.2493         estimate D2E/DX2                !
 ! A25   A(5,7,8)              127.536          estimate D2E/DX2                !
 ! A26   A(5,7,29)             116.1845         estimate D2E/DX2                !
 ! A27   A(8,7,29)             116.2764         estimate D2E/DX2                !
 ! A28   A(7,8,9)              124.437          estimate D2E/DX2                !
 ! A29   A(7,8,10)             117.8887         estimate D2E/DX2                !
 ! A30   A(9,8,10)             117.6728         estimate D2E/DX2                !
 ! A31   A(8,9,13)             121.3205         estimate D2E/DX2                !
 ! A32   A(8,9,21)             122.0929         estimate D2E/DX2                !
 ! A33   A(13,9,21)            116.5836         estimate D2E/DX2                !
 ! A34   A(8,10,11)            121.3408         estimate D2E/DX2                !
 ! A35   A(8,10,22)            120.8517         estimate D2E/DX2                !
 ! A36   A(11,10,22)           117.8069         estimate D2E/DX2                !
 ! A37   A(10,11,12)           120.3152         estimate D2E/DX2                !
 ! A38   A(10,11,23)           119.8563         estimate D2E/DX2                !
 ! A39   A(12,11,23)           119.8285         estimate D2E/DX2                !
 ! A40   A(11,12,13)           120.4709         estimate D2E/DX2                !
 ! A41   A(11,12,25)           118.671          estimate D2E/DX2                !
 ! A42   A(13,12,25)           120.8579         estimate D2E/DX2                !
 ! A43   A(9,13,12)            118.8792         estimate D2E/DX2                !
 ! A44   A(9,13,24)            120.7843         estimate D2E/DX2                !
 ! A45   A(12,13,24)           120.3363         estimate D2E/DX2                !
 ! A46   A(13,24,26)           120.5755         estimate D2E/DX2                !
 ! A47   A(13,24,27)           120.4608         estimate D2E/DX2                !
 ! A48   A(26,24,27)           118.9636         estimate D2E/DX2                !
 ! A49   A(29,30,32)           122.1614         estimate D2E/DX2                !
 ! A50   A(20,31,32)           119.4837         estimate D2E/DX2                !
 ! A51   A(30,32,31)           119.7453         estimate D2E/DX2                !
 ! A52   A(30,32,33)           119.177          estimate D2E/DX2                !
 ! A53   A(31,32,33)           121.0777         estimate D2E/DX2                !
 ! A54   A(32,33,34)           112.7538         estimate D2E/DX2                !
 ! A55   A(32,33,35)           108.8127         estimate D2E/DX2                !
 ! A56   A(32,33,36)           108.857          estimate D2E/DX2                !
 ! A57   A(34,33,35)           108.722          estimate D2E/DX2                !
 ! A58   A(34,33,36)           108.9274         estimate D2E/DX2                !
 ! A59   A(35,33,36)           108.6929         estimate D2E/DX2                !
 ! A60   A(33,34,37)           110.2904         estimate D2E/DX2                !
 ! A61   A(33,34,38)           109.5322         estimate D2E/DX2                !
 ! A62   A(33,34,39)           110.3963         estimate D2E/DX2                !
 ! A63   A(37,34,38)           108.5874         estimate D2E/DX2                !
 ! A64   A(37,34,39)           109.349          estimate D2E/DX2                !
 ! A65   A(38,34,39)           108.6443         estimate D2E/DX2                !
 ! A66   L(4,20,31,2,-1)       180.1607         estimate D2E/DX2                !
 ! A67   L(7,29,30,1,-1)       183.2411         estimate D2E/DX2                !
 ! A68   L(4,20,31,2,-2)       189.5349         estimate D2E/DX2                !
 ! A69   L(7,29,30,1,-2)       190.9061         estimate D2E/DX2                !
 ! D1    D(14,1,2,3)          -179.9902         estimate D2E/DX2                !
 ! D2    D(14,1,2,16)           59.3014         estimate D2E/DX2                !
 ! D3    D(14,1,2,17)          -59.2409         estimate D2E/DX2                !
 ! D4    D(15,1,2,3)            60.4004         estimate D2E/DX2                !
 ! D5    D(15,1,2,16)          -60.308          estimate D2E/DX2                !
 ! D6    D(15,1,2,17)         -178.8502         estimate D2E/DX2                !
 ! D7    D(28,1,2,3)           -60.3255         estimate D2E/DX2                !
 ! D8    D(28,1,2,16)          178.9661         estimate D2E/DX2                !
 ! D9    D(28,1,2,17)           60.4238         estimate D2E/DX2                !
 ! D10   D(1,2,3,4)           -179.6207         estimate D2E/DX2                !
 ! D11   D(1,2,3,18)            59.7718         estimate D2E/DX2                !
 ! D12   D(1,2,3,19)           -59.2262         estimate D2E/DX2                !
 ! D13   D(16,2,3,4)           -59.2884         estimate D2E/DX2                !
 ! D14   D(16,2,3,18)         -179.8959         estimate D2E/DX2                !
 ! D15   D(16,2,3,19)           61.1061         estimate D2E/DX2                !
 ! D16   D(17,2,3,4)            59.9883         estimate D2E/DX2                !
 ! D17   D(17,2,3,18)          -60.6191         estimate D2E/DX2                !
 ! D18   D(17,2,3,19)         -179.6172         estimate D2E/DX2                !
 ! D19   D(2,3,4,5)            179.9206         estimate D2E/DX2                !
 ! D20   D(2,3,4,20)            -0.0815         estimate D2E/DX2                !
 ! D21   D(18,3,4,5)           -59.5291         estimate D2E/DX2                !
 ! D22   D(18,3,4,20)          120.4688         estimate D2E/DX2                !
 ! D23   D(19,3,4,5)            59.5524         estimate D2E/DX2                !
 ! D24   D(19,3,4,20)         -120.4497         estimate D2E/DX2                !
 ! D25   D(3,4,5,6)              0.1476         estimate D2E/DX2                !
 ! D26   D(3,4,5,7)           -179.2143         estimate D2E/DX2                !
 ! D27   D(20,4,5,6)          -179.8503         estimate D2E/DX2                !
 ! D28   D(20,4,5,7)             0.7878         estimate D2E/DX2                !
 ! D29   D(3,4,31,32)         -176.4783         estimate D2E/DX2                !
 ! D30   D(5,4,31,32)           -2.9567         estimate D2E/DX2                !
 ! D31   D(4,5,7,8)           -179.5117         estimate D2E/DX2                !
 ! D32   D(4,5,7,29)             1.1575         estimate D2E/DX2                !
 ! D33   D(6,5,7,8)              1.1411         estimate D2E/DX2                !
 ! D34   D(6,5,7,29)          -178.1897         estimate D2E/DX2                !
 ! D35   D(5,7,8,9)              6.5501         estimate D2E/DX2                !
 ! D36   D(5,7,8,10)          -173.9187         estimate D2E/DX2                !
 ! D37   D(29,7,8,9)          -174.1196         estimate D2E/DX2                !
 ! D38   D(29,7,8,10)            5.4116         estimate D2E/DX2                !
 ! D39   D(5,7,30,32)           -0.1144         estimate D2E/DX2                !
 ! D40   D(8,7,30,32)          173.7465         estimate D2E/DX2                !
 ! D41   D(7,8,9,13)           179.6906         estimate D2E/DX2                !
 ! D42   D(7,8,9,21)             0.3461         estimate D2E/DX2                !
 ! D43   D(10,8,9,13)            0.1584         estimate D2E/DX2                !
 ! D44   D(10,8,9,21)         -179.1861         estimate D2E/DX2                !
 ! D45   D(7,8,10,11)         -179.8548         estimate D2E/DX2                !
 ! D46   D(7,8,10,22)            0.4433         estimate D2E/DX2                !
 ! D47   D(9,8,10,11)           -0.2914         estimate D2E/DX2                !
 ! D48   D(9,8,10,22)         -179.9933         estimate D2E/DX2                !
 ! D49   D(8,9,13,12)            0.0629         estimate D2E/DX2                !
 ! D50   D(8,9,13,24)         -179.7904         estimate D2E/DX2                !
 ! D51   D(21,9,13,12)         179.4419         estimate D2E/DX2                !
 ! D52   D(21,9,13,24)          -0.4114         estimate D2E/DX2                !
 ! D53   D(8,10,11,12)           0.2014         estimate D2E/DX2                !
 ! D54   D(8,10,11,23)        -179.8297         estimate D2E/DX2                !
 ! D55   D(22,10,11,12)        179.9121         estimate D2E/DX2                !
 ! D56   D(22,10,11,23)         -0.119          estimate D2E/DX2                !
 ! D57   D(10,11,12,13)          0.0319         estimate D2E/DX2                !
 ! D58   D(10,11,12,25)        179.8969         estimate D2E/DX2                !
 ! D59   D(23,11,12,13)       -179.9369         estimate D2E/DX2                !
 ! D60   D(23,11,12,25)         -0.0719         estimate D2E/DX2                !
 ! D61   D(11,12,13,9)          -0.1607         estimate D2E/DX2                !
 ! D62   D(11,12,13,24)        179.6933         estimate D2E/DX2                !
 ! D63   D(25,12,13,9)         179.9773         estimate D2E/DX2                !
 ! D64   D(25,12,13,24)         -0.1687         estimate D2E/DX2                !
 ! D65   D(9,13,24,26)          -0.0083         estimate D2E/DX2                !
 ! D66   D(9,13,24,27)         179.8483         estimate D2E/DX2                !
 ! D67   D(12,13,24,26)       -179.8595         estimate D2E/DX2                !
 ! D68   D(12,13,24,27)         -0.0029         estimate D2E/DX2                !
 ! D69   D(29,30,32,31)          0.1217         estimate D2E/DX2                !
 ! D70   D(29,30,32,33)       -179.7589         estimate D2E/DX2                !
 ! D71   D(20,31,32,30)          0.016          estimate D2E/DX2                !
 ! D72   D(20,31,32,33)        179.8943         estimate D2E/DX2                !
 ! D73   D(30,32,33,34)        179.3497         estimate D2E/DX2                !
 ! D74   D(30,32,33,35)         58.6464         estimate D2E/DX2                !
 ! D75   D(30,32,33,36)        -59.657          estimate D2E/DX2                !
 ! D76   D(31,32,33,34)         -0.5293         estimate D2E/DX2                !
 ! D77   D(31,32,33,35)       -121.2325         estimate D2E/DX2                !
 ! D78   D(31,32,33,36)        120.464          estimate D2E/DX2                !
 ! D79   D(32,33,34,37)        -60.4885         estimate D2E/DX2                !
 ! D80   D(32,33,34,38)       -179.944          estimate D2E/DX2                !
 ! D81   D(32,33,34,39)         60.4648         estimate D2E/DX2                !
 ! D82   D(35,33,34,37)         60.2665         estimate D2E/DX2                !
 ! D83   D(35,33,34,38)        -59.189          estimate D2E/DX2                !
 ! D84   D(35,33,34,39)       -178.7801         estimate D2E/DX2                !
 ! D85   D(36,33,34,37)        178.5583         estimate D2E/DX2                !
 ! D86   D(36,33,34,38)         59.1027         estimate D2E/DX2                !
 ! D87   D(36,33,34,39)        -60.4884         estimate D2E/DX2                !
 --------------------------------------------------------------------------------
 Trust Radius=3.00D-01 FncErr=1.00D-07 GrdErr=1.00D-06
 Number of steps in this run=    206 maximum allowed number of steps=    234.
 GradGradGradGradGradGradGradGradGradGradGradGradGradGradGradGradGradGrad

                          Input orientation:                          
 ---------------------------------------------------------------------
 Center     Atomic      Atomic             Coordinates (Angstroms)
 Number     Number       Type             X           Y           Z
 ---------------------------------------------------------------------
      1          6           0       11.987890    0.254240   -7.418460
      2          6           0       10.857950   -0.043740   -6.437040
      3          6           0       10.700430    1.086690   -5.414680
      4          7           0        9.629950    0.799590   -4.473760
      5          6           0        9.311030    1.668830   -3.471110
      6          8           0        9.939810    2.709740   -3.368430
      7          7           0        8.304820    1.355470   -2.592540
      8          6           0        7.825100    2.148370   -1.485400
      9          6           0        8.248210    3.473220   -1.204540
     10          6           0        6.865190    1.573300   -0.630490
     11          6           0        6.350840    2.275150    0.458020
     12          6           0        6.777180    3.573050    0.721720
     13          6           0        7.729670    4.191900   -0.105100
     14          1           0       12.078980   -0.579540   -8.146030
     15          1           0       12.951960    0.359940   -6.876550
     16          1           0       11.083540   -0.994730   -5.907070
     17          1           0        9.910070   -0.165390   -7.005170
     18          1           0       10.473100    2.034570   -5.950770
     19          1           0       11.654660    1.206710   -4.855460
     20          1           0        9.046780   -0.175680   -4.580740
     21          1           0        8.965690    3.983800   -1.816170
     22          1           0        6.506670    0.567230   -0.796750
     23          1           0        5.615650    1.808680    1.101370
     24          7           0        8.161320    5.529420    0.164990
     25          1           0        6.358800    4.094240    1.573340
     26          8           0        8.969020    6.060560   -0.536610
     27          8           0        7.716910    6.132930    1.094930
     28          1           0       11.778230    1.191890   -7.976090
     29          1           0        7.793330    0.341920   -2.750000
     30          8           0        6.554710   -1.274170   -3.164880
     31          8           0        7.781400   -1.773580   -4.956420
     32          6           0        6.740250   -2.006780   -4.127060
     33          6           0        5.798060   -3.154940   -4.367210
     34          6           0        6.155880   -3.961880   -5.613240
     35          1           0        4.768140   -2.754700   -4.485060
     36          1           0        5.819580   -3.828100   -3.483360
     37          1           0        6.115770   -3.315100   -6.515820
     38          1           0        5.428740   -4.791560   -5.739730
     39          1           0        7.174500   -4.394220   -5.515210
 ---------------------------------------------------------------------
                    Distance matrix (angstroms):
                    1          2          3          4          5
     1  C    0.000000
     2  C    1.526022   0.000000
     3  C    2.523026   1.532287   0.000000
     4  N    3.811633   2.464479   1.453852   0.000000
     5  C    4.974758   3.758005   2.459021   1.364769   0.000000
     6  O    5.160122   4.223861   2.720289   2.228551   1.220410
     7  N    6.169864   4.822493   3.711558   2.367269   1.372056
     8  C    7.491178   6.206631   4.983365   3.742591   2.526062
     9  C    7.934724   6.823401   5.425328   4.443569   3.085895
    10  C    8.605725   7.230005   6.150962   4.797213   3.749717
    11  C    9.894410   8.557637   7.404051   6.103466   4.956653
    12  C   10.219028   8.998983   7.696056   6.543958   5.256070
    13  C    9.333962   8.235305   6.830767   5.848420   4.494063
    14  H    1.110335   2.167635   3.483819   4.624426   5.879761
    15  H    1.110977   2.177385   2.781118   4.123402   5.154278
    16  H    2.159184   1.111819   2.172908   2.717883   4.021224
    17  H    2.159684   1.111776   2.173024   2.723544   4.026511
    18  H    2.760123   2.168857   1.112451   2.101817   2.762768
    19  H    2.754489   2.167895   1.112514   2.100212   2.760902
    20  H    4.109454   2.596843   2.241337   1.141352   2.168715
    21  H    7.377599   6.415151   4.934759   4.200383   2.866561
    22  H    8.601673   7.149811   6.259612   4.830038   4.028667
    23  H   10.752173   9.367006   8.296696   6.943698   5.880728
    24  N    9.998944   9.050896   7.570842   6.785733   5.426528
    25  H   11.282053  10.076280   8.759425   7.623815   6.328092
    26  O    9.496672   8.697448   7.178630   6.604225   5.292972
    27  O   11.192769  10.234645   8.760191   7.944466   6.581651
    28  H    1.110899   2.177699   2.780924   4.127387   5.158429
    29  H    6.276666   4.809875   4.013282   2.560075   2.141052
    30  O    7.067420   5.544264   5.274680   3.933287   4.043801
    31  O    5.279039   3.827498   4.112406   3.204887   4.049210
    32  C    6.594183   5.113217   5.187538   4.043053   4.533132
    33  C    7.697183   6.290171   6.566723   5.507544   6.034295
    34  C    7.419355   6.175753   6.795618   6.003264   6.800631
    35  H    8.353643   6.945885   7.128291   6.022483   6.421336
    36  H    8.378458   6.959223   7.190817   6.075798   6.512036
    37  H    6.930854   5.761621   6.450378   5.783610   6.657290
    38  H    8.443973   7.245989   7.902544   7.107306   7.871179
    39  H    6.956958   5.774448   6.517873   5.838623   6.745642
                    6          7          8          9         10
     6  O    0.000000
     7  N    2.260364   0.000000
     8  C    2.886683   1.443808   0.000000
     9  C    2.850760   2.532709   1.418849   0.000000
    10  C    4.270960   2.443282   1.408192   2.419085   0.000000
    11  C    5.264152   3.737615   2.442621   2.792757   1.393558
    12  C    5.241837   4.270324   2.828291   2.425773   2.415620
    13  C    4.210800   3.816214   2.467863   1.412145   2.807210
    14  H    6.182303   6.987832   8.360681   8.904153   9.396897
    15  H    5.186667   6.398416   7.651645   7.999342   8.805355
    16  H    4.634211   4.922483   6.328323   7.079227   7.227140
    17  H    4.636069   4.935701   6.337858   7.046174   7.275361
    18  H    2.721899   4.054667   5.192724   5.435674   6.444778
    19  H    2.722328   4.045289   5.187442   5.483629   6.397170
    20  H    3.254665   2.616842   4.058921   5.034969   4.839705
    21  H    2.231961   2.819152   2.186128   1.072176   3.410051
    22  H    4.794824   2.660738   2.170829   3.412335   1.080905
    23  H    6.284058   4.591515   3.418836   3.875343   2.148509
    24  N    4.857847   5.004640   3.777344   2.472068   4.238352
    25  H    6.257920   5.351861   3.910542   3.416453   3.386508
    26  O    4.493287   5.177440   4.184971   2.767675   4.956855
    27  O    6.048231   6.063596   4.748318   3.555826   4.949013
    28  H    5.187889   6.408896   7.659709   7.969906   8.845410
    29  H    3.255212   1.146167   2.205331   3.521420   2.621081
    30  O    5.231814   3.210213   4.018498   5.408196   3.824607
    31  O    5.223084   3.956368   5.237517   6.467103   5.545694
    32  C    5.749632   4.013397   5.041878   6.391046   5.005855
    33  C    7.248871   5.456840   6.367010   7.741978   6.120302
    34  C    7.991734   6.482035   7.560457   8.893548   7.481252
    35  H    7.606125   5.743103   6.510227   7.852368   6.163352
    36  H    7.728703   5.817162   6.613029   8.024995   6.197361
    37  H    7.799233   6.480609   7.620790   8.879093   7.687340
    38  H    9.068755   7.480817   8.485546   9.839916   8.287289
    39  H    7.919713   6.548172   7.711558   9.035006   7.717996
                   11         12         13         14         15
    11  C    0.000000
    12  C    1.391348   0.000000
    13  C    2.427387   1.404936   0.000000
    14  H   10.723363  11.135083  10.312114   0.000000
    15  H   10.051802  10.304644   9.370633   1.804521   0.000000
    16  H    8.579332   9.129633   8.474222   2.485201   2.503201
    17  H    8.621111   9.137602   8.446957   2.485408   3.089597
    18  H    7.623877   7.781315   6.808255   3.772478   3.131485
    19  H    7.583214   7.777809   6.847103   3.768101   2.546529
    20  H    6.218019   6.878964   6.390766   4.697726   4.561586
    21  H    3.863789   3.376267   2.121040   8.401415   7.391222
    22  H    2.125023   3.378444   3.887459   9.293957   8.862770
    23  H    1.082588   2.146226   3.406521  11.532243  10.934692
    24  N    3.735502   2.460320   1.431164  11.033608   9.962783
    25  H    2.133797   1.082561   2.169328  12.207818  11.349687
    26  O    4.708873   3.546162   2.283436  10.567216   9.410405
    27  O    4.141771   2.752338   2.282068  12.226212  11.147989
    28  H   10.087826  10.311757   9.345768   1.804798   1.810738
    29  H    4.013670   4.850320   4.671391   6.952196   6.606073
    30  O    5.075888   6.216968   6.373438   7.470738   7.574405
    31  O    6.910490   7.863599   7.689274   5.483479   5.913839
    32  C    6.285660   7.392329   7.455116   6.833094   7.193497
    33  C    7.285210   8.492452   8.710497   7.769306   8.356402
    34  C    8.706248   9.863716   9.964966   7.275875   8.152348
    35  H    7.227612   8.437252   8.729832   8.460639   9.077176
    36  H    7.284667   8.566021   8.909629   8.454213   8.940037
    37  H    8.940951  10.013294  10.002852   6.760233   7.769784
    38  H    9.444616  10.655296  10.851078   8.231469   9.188534
    39  H    8.991017  10.125935  10.163610   6.747364   7.604888
                   16         17         18         19         20
    16  H    0.000000
    17  H    1.808497   0.000000
    18  H    3.090502   2.503714   0.000000
    19  H    2.505674   3.089904   1.811392   0.000000
    20  H    2.564836   2.573565   2.965902   2.964374   0.000000
    21  H    6.782810   6.710689   4.813180   4.917324   4.995067
    22  H    7.035825   7.117889   6.667052   6.586643   4.617646
    23  H    9.320685   9.383762   8.566127   8.503872   6.927966
    24  N    9.379436   9.322027   7.413557   7.489604   7.473564
    25  H   10.206729  10.215028   8.819407   8.815522   7.958024
    26  O    9.115380   9.027198   6.912596   7.030291   7.433150
    27  O   10.543516  10.492398   8.604361   8.670678   8.589549
    28  H    3.089457   2.504978   2.552527   3.123111   4.567217
    29  H    4.751758   4.779584   4.504571   4.482264   2.278301
    30  O    5.301697   5.218780   5.836328   5.917966   3.069487
    31  O    3.523418   3.363761   4.768227   4.888196   2.072584
    32  C    4.801755   4.660686   5.795912   5.916799   2.979737
    33  C    5.913880   5.727553   7.162030   7.318616   4.413136
    34  C    5.759527   5.517676   7.396602   7.584533   4.874287
    35  H    6.708493   6.284499   7.591573   7.953246   4.996725
    36  H    6.450708   6.523090   7.881260   7.828163   4.995922
    37  H    5.516650   4.955487   6.922758   7.340495   4.710766
    38  H    6.813273   6.563925   8.490357   8.690412   5.978279
    39  H    5.195256   5.252269   7.238772   7.202605   4.709007
                   21         22         23         24         25
    21  H    0.000000
    22  H    4.331160   0.000000
    23  H    4.946307   2.436796   0.000000
    24  N    2.638361   5.318472   4.604471   0.000000
    25  H    4.277482   4.251940   2.449247   2.700420   0.000000
    26  O    2.439307   6.025572   5.657433   1.194459   3.889930
    27  O    3.827886   6.001679   4.807751   1.194367   2.495916
    28  H    7.324599   8.928744  10.988999   9.908248  11.357177
    29  H    3.938243   2.349775   4.661194   5.961773   5.901614
    30  O    5.939536   3.000184   5.346652   7.743259   7.163026
    31  O    6.664168   4.940363   7.363415   8.927877   8.893417
    32  C    6.795575   4.215573   6.569546   8.788370   8.358380
    33  C    8.216039   5.206233   7.387568  10.076901   9.389099
    34  C    9.243733   6.620760   8.870017  11.291347  10.797647
    35  H    8.375547   5.259405   7.262982  10.087779   9.281292
    36  H    8.585063   5.197008   7.268743  10.312972   9.414056
    37  H    9.136887   6.923370   9.193738  11.271337  10.972324
    38  H   10.242621   7.369641   9.507826  12.200629  11.545711
    39  H    9.331799   6.879378   9.202451  11.476808  11.089042
                   26         27         28         29         30
    26  O    0.000000
    27  O    2.057897   0.000000
    28  H    9.324241  11.099171   0.000000
    29  H    6.243732   6.951627   6.626756   0.000000
    30  O    8.156896   8.623330   7.517603   2.077992   0.000000
    31  O    9.072977   9.956701   5.821260   3.056758   2.227957
    32  C    9.107180   9.719975   7.101251   2.919189   1.223492
    33  C   10.471577  10.944473   8.226869   4.338721   2.356992
    34  C   11.581677  12.220538   7.984687   5.422369   3.657501
    35  H   10.533113  10.900528   8.769505   4.663825   2.669584
    36  H   10.788323  11.125768   8.993911   4.671464   2.676640
    37  H   11.480200  12.237338   7.383008   5.510844   3.948020
    38  H   12.544901  13.087887   9.006609   6.393934   4.502188
    39  H   11.717900  12.442228   7.645579   5.519090   3.955111
                   31         32         33         34         35
    31  O    0.000000
    32  C    1.351375   0.000000
    33  C    2.487762   1.504548   0.000000
    34  C    2.803994   2.524408   1.527016   0.000000
    35  H    3.203828   2.139338   1.111223   2.157753   0.000000
    36  H    3.199952   2.139904   1.111215   2.160413   1.805856
    37  H    2.753604   2.794253   2.177870   1.111118   2.500828
    38  H    3.905994   3.475020   2.167656   1.110451   2.481811
    39  H    2.747422   2.795604   2.179061   1.110907   3.088657
                   36         37         38         39
    36  H    0.000000
    37  H    3.089775   0.000000
    38  H    2.484395   1.803957   0.000000
    39  H    2.506933   1.812906   1.804430   0.000000
 Stoichiometry    C13H18N3O5(1-)
 Framework group  C1[X(C13H18N3O5)]
 Deg. of freedom   111
 Full point group                 C1      NOp   1
 Largest Abelian subgroup         C1      NOp   1
 Largest concise Abelian subgroup C1      NOp   1
                         Standard orientation:                         
 ---------------------------------------------------------------------
 Center     Atomic      Atomic             Coordinates (Angstroms)
 Number     Number       Type             X           Y           Z
 ---------------------------------------------------------------------
      1          6           0       -4.026459    4.428532   -0.043281
      2          6           0       -3.537797    2.983789   -0.094929
      3          6           0       -2.007240    2.915988   -0.068378
      4          7           0       -1.540543    1.540307   -0.126511
      5          6           0       -0.209504    1.238916   -0.116886
      6          8           0        0.602364    2.148026   -0.055327
      7          7           0        0.192705   -0.070861   -0.189355
      8          6           0        1.544654   -0.577580   -0.182207
      9          6           0        2.698671    0.218298    0.036777
     10          6           0        1.732419   -1.956473   -0.397619
     11          6           0        3.005820   -2.522537   -0.402506
     12          6           0        4.128134   -1.728588   -0.188258
     13          6           0        3.992136   -0.348359    0.036057
     14          1           0       -5.136448    4.447338   -0.063640
     15          1           0       -3.645288    4.996437   -0.918759
     16          1           0       -3.914190    2.510107   -1.027718
     17          1           0       -3.949142    2.432924    0.778793
     18          1           0       -1.637114    3.389587    0.867709
     19          1           0       -1.603356    3.474985   -0.941353
     20          1           0       -2.308661    0.697882   -0.181253
     21          1           0        2.636902    1.272764    0.220757
     22          1           0        0.889218   -2.610479   -0.569797
     23          1           0        3.122587   -3.585172   -0.573298
     24          7           0        5.148058    0.464501    0.262618
     25          1           0        5.104398   -2.196336   -0.195977
     26          8           0        5.037195    1.637935    0.456254
     27          8           0        6.239168   -0.021290    0.263444
     28          1           0       -3.679219    4.920829    0.890081
     29          1           0       -0.641512   -0.852038   -0.276210
     30          8           0       -2.055367   -2.358450   -0.053080
     31          8           0       -3.681496   -0.838513    0.043295
     32          6           0       -3.249639   -2.118888    0.062064
     33          6           0       -4.214542   -3.261658    0.225472
     34          6           0       -5.661593   -2.796481    0.371871
     35          1           0       -3.933054   -3.841703    1.130528
     36          1           0       -4.137607   -3.926332   -0.661708
     37          1           0       -5.769585   -2.149925    1.269027
     38          1           0       -6.325168   -3.679032    0.489655
     39          1           0       -5.979563   -2.230889   -0.529857
 ---------------------------------------------------------------------
 Rotational constants (GHZ):      0.3702060      0.1330458      0.0987637
 General basis read from cards:  (6D, 7F)
 There are   435 symmetry adapted cartesian basis functions of A   symmetry.
 There are   435 symmetry adapted basis functions of A   symmetry.
   435 basis functions,   744 primitive gaussians,   435 cartesian basis functions
    79 alpha electrons       79 beta electrons
       nuclear repulsion energy      1597.0235716322 Hartrees.
 NAtoms=   39 NActive=   39 NUniq=   39 SFac= 1.00D+00 NAtFMM=   60 NAOKFM=F Big=F
 Integral buffers will be    131072 words long.
 Raffenetti 2 integral format.
 Two-electron integral symmetry is turned on.
 ------------------------------------------------------------------------------
 Polarizable Continuum Model (PCM)
 =================================
 Model                : PCM (using non-symmetric T matrix).
 Atomic radii         : SMD-Coulomb.
 Polarization charges : Total charges.
 Charge compensation  : None.
 Solution method      : On-the-fly selection.
 Cavity type          : VdW (van der Waals Surface) (Alpha=1.000).
 Cavity algorithm     : GePol (No added spheres)
                        Default sphere list used, NSphG=   39.
                        Lebedev-Laikov grids with approx.  5.0 points / Ang**2.
                        Smoothing algorithm: York/Karplus (Gamma=1.0000).
                        Polarization charges: spherical gaussians, with
                                              point-specific exponents (IZeta= 3).
                        Self-potential: point-specific (ISelfS= 7).
                        Self-field    : sphere-specific E.n sum rule (ISelfD= 2).
 1st derivatives      : Analytical E(r).r(x)/FMM algorithm (CHGder, D1EAlg=3).
                        Cavity 1st derivative terms included.
 Solvent              : Water, Eps=  78.355300 Eps(inf)=   1.777849
 ------------------------------------------------------------------------------
 ------------------------------------------------------------------------------
 Atomic radii for non-electrostatic terms: SMD-CDS.
 ------------------------------------------------------------------------------
 Nuclear repulsion after PCM non-electrostatic terms =     1597.0402393137 Hartrees.
 One-electron integrals computed using PRISM.
 NBasis=   435 RedAO= T EigKep=  1.25D-06  NBF=   435
 NBsUse=   435 1.00D-06 EigRej= -1.00D+00 NBFU=   435
 ExpMin= 4.38D-02 ExpMax= 5.48D+03 ExpMxC= 8.25D+02 IAcc=3 IRadAn=         5 AccDes= 0.00D+00
 Harris functional with IExCor= 1009 and IRadAn=       5 diagonalized for initial guess.
 HarFok:  IExCor= 1009 AccDes= 0.00D+00 IRadAn=         5 IDoV= 1 UseB2=F ITyADJ=14
 ICtDFT=  3500011 ScaDFX=  1.000000  1.000000  1.000000  1.000000
 FoFCou: FMM=F IPFlag=           0 FMFlag=      100000 FMFlg1=           0
         NFxFlg=           0 DoJE=T BraDBF=F KetDBF=T FulRan=T
         wScrn=  0.000000 ICntrl=     500 IOpCl=  0 I1Cent=   200000004 NGrid=           0
         NMat0=    1 NMatS0=      1 NMatT0=    0 NMatD0=    1 NMtDS0=    0 NMtDT0=    0
 Petite list used in FoFCou.
 Requested convergence on RMS density matrix=1.00D-08 within 128 cycles.
 Requested convergence on MAX density matrix=1.00D-06.
 Requested convergence on             energy=1.00D-06.
 No special actions if energy rises.
 Inv3:  Mode=1 IEnd=    27018003.
 Iteration    1 A*A^-1 deviation from unit magnitude is 5.77D-15 for   2987.
 Iteration    1 A*A^-1 deviation from orthogonality  is 4.98D-15 for   2982   2491.
 Iteration    1 A^-1*A deviation from unit magnitude is 5.77D-15 for   2987.
 Iteration    1 A^-1*A deviation from orthogonality  is 4.89D-08 for   2468   2412.
 Iteration    2 A*A^-1 deviation from unit magnitude is 2.44D-15 for     63.
 Iteration    2 A*A^-1 deviation from orthogonality  is 3.08D-15 for   1986    547.
 Iteration    2 A^-1*A deviation from unit magnitude is 8.88D-16 for    662.
 Iteration    2 A^-1*A deviation from orthogonality  is 2.89D-16 for   1127   1088.
 Error on total polarization charges =  0.07974
 SCF Done:  E(RM062X) =  -1046.28190006     A.U. after   16 cycles
            NFock= 16  Conv=0.58D-08     -V/T= 2.0091
 SMD-CDS (non-electrostatic) energy       (kcal/mol) =      10.46
 (included in total energy above)

 **********************************************************************

            Population analysis using the SCF density.

 **********************************************************************

 Orbital symmetries:
       Occupied  (A) (A) (A) (A) (A) (A) (A) (A) (A) (A) (A) (A)
                 (A) (A) (A) (A) (A) (A) (A) (A) (A) (A) (A) (A)
                 (A) (A) (A) (A) (A) (A) (A) (A) (A) (A) (A) (A)
                 (A) (A) (A) (A) (A) (A) (A) (A) (A) (A) (A) (A)
                 (A) (A) (A) (A) (A) (A) (A) (A) (A) (A) (A) (A)
                 (A) (A) (A) (A) (A) (A) (A) (A) (A) (A) (A) (A)
                 (A) (A) (A) (A) (A) (A) (A)
       Virtual   (A) (A) (A) (A) (A) (A) (A) (A) (A) (A) (A) (A)
                 (A) (A) (A) (A) (A) (A) (A) (A) (A) (A) (A) (A)
                 (A) (A) (A) (A) (A) (A) (A) (A) (A) (A) (A) (A)
                 (A) (A) (A) (A) (A) (A) (A) (A) (A) (A) (A) (A)
                 (A) (A) (A) (A) (A) (A) (A) (A) (A) (A) (A) (A)
                 (A) (A) (A) (A) (A) (A) (A) (A) (A) (A) (A) (A)
                 (A) (A) (A) (A) (A) (A) (A) (A) (A) (A) (A) (A)
                 (A) (A) (A) (A) (A) (A) (A) (A) (A) (A) (A) (A)
                 (A) (A) (A) (A) (A) (A) (A) (A) (A) (A) (A) (A)
                 (A) (A) (A) (A) (A) (A) (A) (A) (A) (A) (A) (A)
                 (A) (A) (A) (A) (A) (A) (A) (A) (A) (A) (A) (A)
                 (A) (A) (A) (A) (A) (A) (A) (A) (A) (A) (A) (A)
                 (A) (A) (A) (A) (A) (A) (A) (A) (A) (A) (A) (A)
                 (A) (A) (A) (A) (A) (A) (A) (A) (A) (A) (A) (A)
                 (A) (A) (A) (A) (A) (A) (A) (A) (A) (A) (A) (A)
                 (A) (A) (A) (A) (A) (A) (A) (A) (A) (A) (A) (A)
                 (A) (A) (A) (A) (A) (A) (A) (A) (A) (A) (A) (A)
                 (A) (A) (A) (A) (A) (A) (A) (A) (A) (A) (A) (A)
                 (A) (A) (A) (A) (A) (A) (A) (A) (A) (A) (A) (A)
                 (A) (A) (A) (A) (A) (A) (A) (A) (A) (A) (A) (A)
                 (A) (A) (A) (A) (A) (A) (A) (A) (A) (A) (A) (A)
                 (A) (A) (A) (A) (A) (A) (A) (A) (A) (A) (A) (A)
                 (A) (A) (A) (A) (A) (A) (A) (A) (A) (A) (A) (A)
                 (A) (A) (A) (A) (A) (A) (A) (A) (A) (A) (A) (A)
                 (A) (A) (A) (A) (A) (A) (A) (A) (A) (A) (A) (A)
                 (A) (A) (A) (A) (A) (A) (A) (A) (A) (A) (A) (A)
                 (A) (A) (A) (A) (A) (A) (A) (A) (A) (A) (A) (A)
                 (A) (A) (A) (A) (A) (A) (A) (A) (A) (A) (A) (A)
                 (A) (A) (A) (A) (A) (A) (A) (A) (A) (A) (A) (A)
                 (A) (A) (A) (A) (A) (A) (A) (A)
 The electronic state is 1-A.
 Alpha  occ. eigenvalues --  -19.69332 -19.69327 -19.61298 -19.61126 -19.59476
 Alpha  occ. eigenvalues --  -15.03252 -14.80466 -14.77921 -10.68343 -10.65192
 Alpha  occ. eigenvalues --  -10.62860 -10.62245 -10.58048 -10.57618 -10.57601
 Alpha  occ. eigenvalues --  -10.57412 -10.56989 -10.54307 -10.54246 -10.53271
 Alpha  occ. eigenvalues --  -10.53081  -1.41486  -1.20685  -1.18437  -1.16667
 Alpha  occ. eigenvalues --   -1.04002  -1.03893  -1.01082  -0.98722  -0.91810
 Alpha  occ. eigenvalues --   -0.87420  -0.85969  -0.85223  -0.80686  -0.76921
 Alpha  occ. eigenvalues --   -0.71979  -0.71815  -0.69259  -0.67132  -0.66104
 Alpha  occ. eigenvalues --   -0.65652  -0.64267  -0.62455  -0.60920  -0.59085
 Alpha  occ. eigenvalues --   -0.58152  -0.57167  -0.55153  -0.53539  -0.52995
 Alpha  occ. eigenvalues --   -0.52901  -0.52019  -0.51716  -0.51178  -0.50137
 Alpha  occ. eigenvalues --   -0.49111  -0.46831  -0.45918  -0.45496  -0.44795
 Alpha  occ. eigenvalues --   -0.44783  -0.43671  -0.43569  -0.41779  -0.41358
 Alpha  occ. eigenvalues --   -0.40845  -0.39902  -0.39528  -0.39149  -0.39090
 Alpha  occ. eigenvalues --   -0.39020  -0.38131  -0.35104  -0.33156  -0.33011
 Alpha  occ. eigenvalues --   -0.32959  -0.31670  -0.31603  -0.27788
 Alpha virt. eigenvalues --   -0.06493   0.00846   0.01882   0.02947   0.03427
 Alpha virt. eigenvalues --    0.03495   0.03930   0.04220   0.04407   0.04788
 Alpha virt. eigenvalues --    0.05425   0.05852   0.06223   0.06528   0.07009
 Alpha virt. eigenvalues --    0.07334   0.07646   0.07766   0.08061   0.08505
 Alpha virt. eigenvalues --    0.08637   0.09091   0.09871   0.10121   0.10496
 Alpha virt. eigenvalues --    0.10615   0.11057   0.11288   0.11362   0.11659
 Alpha virt. eigenvalues --    0.12185   0.13119   0.13267   0.14127   0.14311
 Alpha virt. eigenvalues --    0.14691   0.14882   0.15023   0.15351   0.15552
 Alpha virt. eigenvalues --    0.16285   0.17001   0.17176   0.17710   0.18096
 Alpha virt. eigenvalues --    0.18474   0.18698   0.19241   0.20132   0.20561
 Alpha virt. eigenvalues --    0.20800   0.21361   0.21610   0.22125   0.22155
 Alpha virt. eigenvalues --    0.22607   0.23124   0.23473   0.23652   0.24130
 Alpha virt. eigenvalues --    0.24337   0.24616   0.24801   0.25121   0.25316
 Alpha virt. eigenvalues --    0.25547   0.26055   0.26151   0.26954   0.27094
 Alpha virt. eigenvalues --    0.27263   0.27906   0.28125   0.28366   0.28415
 Alpha virt. eigenvalues --    0.28806   0.29318   0.29482   0.30112   0.30343
 Alpha virt. eigenvalues --    0.30788   0.30977   0.31318   0.31671   0.32199
 Alpha virt. eigenvalues --    0.32290   0.32308   0.33005   0.33209   0.33328
 Alpha virt. eigenvalues --    0.33764   0.34328   0.34839   0.34994   0.35534
 Alpha virt. eigenvalues --    0.35957   0.36226   0.36780   0.37412   0.37835
 Alpha virt. eigenvalues --    0.38129   0.39115   0.39578   0.39937   0.40547
 Alpha virt. eigenvalues --    0.41057   0.41106   0.41945   0.42688   0.42834
 Alpha virt. eigenvalues --    0.44842   0.45809   0.46793   0.46880   0.48453
 Alpha virt. eigenvalues --    0.49299   0.50232   0.50410   0.51096   0.52156
 Alpha virt. eigenvalues --    0.53771   0.54204   0.54648   0.55914   0.57118
 Alpha virt. eigenvalues --    0.61438   0.63673   0.66405   0.69944   0.70434
 Alpha virt. eigenvalues --    0.70717   0.71271   0.72681   0.72838   0.74199
 Alpha virt. eigenvalues --    0.75497   0.75738   0.76543   0.76864   0.77378
 Alpha virt. eigenvalues --    0.78229   0.78633   0.79048   0.79501   0.80357
 Alpha virt. eigenvalues --    0.81294   0.81558   0.82280   0.83095   0.86343
 Alpha virt. eigenvalues --    0.86533   0.87325   0.88236   0.88987   0.89857
 Alpha virt. eigenvalues --    0.90432   0.92130   0.93684   0.94788   0.95515
 Alpha virt. eigenvalues --    0.96310   0.98175   0.98675   0.98909   1.00121
 Alpha virt. eigenvalues --    1.01042   1.01568   1.03443   1.04596   1.05536
 Alpha virt. eigenvalues --    1.06373   1.06577   1.06979   1.07944   1.08061
 Alpha virt. eigenvalues --    1.08707   1.11445   1.12291   1.13969   1.14146
 Alpha virt. eigenvalues --    1.14948   1.15693   1.16422   1.17098   1.17797
 Alpha virt. eigenvalues --    1.18172   1.18781   1.19744   1.20840   1.22070
 Alpha virt. eigenvalues --    1.23896   1.24402   1.24628   1.24855   1.25083
 Alpha virt. eigenvalues --    1.26850   1.27745   1.28826   1.31133   1.31601
 Alpha virt. eigenvalues --    1.32118   1.33652   1.34721   1.34963   1.35321
 Alpha virt. eigenvalues --    1.35814   1.36638   1.37317   1.38839   1.40275
 Alpha virt. eigenvalues --    1.40951   1.41159   1.42142   1.44098   1.44442
 Alpha virt. eigenvalues --    1.44748   1.45557   1.46735   1.47519   1.47830
 Alpha virt. eigenvalues --    1.49020   1.50231   1.51122   1.52141   1.52514
 Alpha virt. eigenvalues --    1.53121   1.53344   1.54869   1.57181   1.58352
 Alpha virt. eigenvalues --    1.59808   1.60962   1.63427   1.66084   1.66816
 Alpha virt. eigenvalues --    1.69893   1.72831   1.73616   1.74495   1.77453
 Alpha virt. eigenvalues --    1.80578   1.83092   1.84050   1.85388   1.86175
 Alpha virt. eigenvalues --    1.86213   1.86437   1.87516   1.88920   1.89785
 Alpha virt. eigenvalues --    1.90239   1.90681   1.91334   1.92684   1.93471
 Alpha virt. eigenvalues --    1.93940   1.95719   1.96093   1.96626   1.97092
 Alpha virt. eigenvalues --    1.98368   1.98986   2.01134   2.01827   2.02867
 Alpha virt. eigenvalues --    2.03270   2.04053   2.05935   2.06615   2.06877
 Alpha virt. eigenvalues --    2.07432   2.09038   2.10235   2.10848   2.12557
 Alpha virt. eigenvalues --    2.14299   2.15132   2.16721   2.18612   2.18944
 Alpha virt. eigenvalues --    2.21268   2.22344   2.24653   2.25046   2.26410
 Alpha virt. eigenvalues --    2.27308   2.27904   2.28806   2.29500   2.31139
 Alpha virt. eigenvalues --    2.32438   2.32623   2.35160   2.37078   2.38112
 Alpha virt. eigenvalues --    2.38509   2.38839   2.41146   2.42693   2.47273
 Alpha virt. eigenvalues --    2.52380   2.54328   2.54963   2.55314   2.56107
 Alpha virt. eigenvalues --    2.61902   2.62515   2.64388   2.66148   2.66993
 Alpha virt. eigenvalues --    2.69868   2.70981   2.71969   2.73484   2.75160
 Alpha virt. eigenvalues --    2.75788   2.78743   2.80933   2.81595   2.84875
 Alpha virt. eigenvalues --    2.85347   2.89479   2.95892   3.00770   3.02088
 Alpha virt. eigenvalues --    3.06070   3.12457   3.13801   3.15981   3.17326
 Alpha virt. eigenvalues --    3.19203   3.22971   3.28135   3.33595   3.43914
 Alpha virt. eigenvalues --    4.16199   4.21118   4.22722   4.28542   4.28736
 Alpha virt. eigenvalues --    4.31672   4.32343   4.37675   4.40563   4.44015
 Alpha virt. eigenvalues --    4.45734   4.47648   4.50325   4.52568   4.54784
 Alpha virt. eigenvalues --    4.55943   4.63246   4.70684   4.74947   4.79050
 Alpha virt. eigenvalues --    4.81927
          Condensed to atoms (all electrons):
               1          2          3          4          5          6
     1  C    5.792095  -0.132519  -0.003931  -0.009504  -0.038072  -0.001990
     2  C   -0.132519   6.199393  -0.360064  -0.051573   0.138496   0.019082
     3  C   -0.003931  -0.360064   6.868891   0.298574  -0.749281  -0.081136
     4  N   -0.009504  -0.051573   0.298574   7.627578   0.472495  -0.186966
     5  C   -0.038072   0.138496  -0.749281   0.472495   6.106768   0.618844
     6  O   -0.001990   0.019082  -0.081136  -0.186966   0.618844   8.494074
     7  N   -0.003002   0.006136  -0.167959  -0.317419   0.238426  -0.097156
     8  C   -0.006843   0.005915  -0.249397  -0.156262  -0.686097  -0.331423
     9  C    0.002186  -0.005150   0.006443   0.037415   0.766774   0.300353
    10  C   -0.001993   0.002620  -0.071114  -0.069486  -0.658068  -0.124093
    11  C   -0.000176   0.000141  -0.005514  -0.017192  -0.081101   0.008028
    12  C    0.000125   0.000094   0.006677   0.000912   0.124717  -0.011913
    13  C   -0.000637   0.000667  -0.071531  -0.016272  -0.887845   0.117663
    14  H    0.432213  -0.106924   0.026953   0.000389  -0.001484   0.000005
    15  H    0.422537  -0.069502  -0.011209   0.000400   0.001780  -0.000030
    16  H   -0.017961   0.408387  -0.069896   0.006862  -0.011880  -0.000213
    17  H   -0.033025   0.431929  -0.098143   0.007323   0.007357  -0.000045
    18  H   -0.001042  -0.048641   0.436085  -0.051465  -0.029795   0.001932
    19  H   -0.006252  -0.039173   0.438077  -0.053344  -0.032256   0.003537
    20  H   -0.001470   0.002681  -0.065116   0.186136   0.029937   0.005615
    21  H    0.000008   0.000075   0.002960  -0.000411   0.021509  -0.005166
    22  H    0.000000   0.000015   0.000230   0.000756   0.010687   0.000031
    23  H    0.000000   0.000000   0.000011   0.000008   0.001807  -0.000002
    24  N    0.000001  -0.000062   0.000545   0.000592  -0.001609   0.001549
    25  H    0.000000   0.000000   0.000003  -0.000001   0.000523   0.000004
    26  O   -0.000001   0.000033   0.000054  -0.000331  -0.001536  -0.000532
    27  O    0.000000  -0.000000   0.000109   0.000037   0.004205   0.000006
    28  H    0.423289  -0.070769  -0.008323   0.000342  -0.000448  -0.000049
    29  H    0.000177   0.000589   0.007477   0.027160  -0.015846   0.003928
    30  O    0.000072  -0.001264   0.008905   0.008452   0.001881  -0.000332
    31  O    0.003356   0.006762  -0.016659  -0.030233   0.005973  -0.000272
    32  C   -0.001831  -0.006557   0.005837  -0.008102  -0.003136  -0.000356
    33  C    0.001707   0.000260   0.014244  -0.007348  -0.014982  -0.000320
    34  C   -0.000523  -0.000428  -0.002160   0.002152   0.000907   0.000042
    35  H   -0.000003  -0.000020  -0.000010   0.000010   0.000024  -0.000000
    36  H    0.000001   0.000001   0.000014   0.000031  -0.000219  -0.000000
    37  H    0.000020  -0.000043  -0.000008   0.000003  -0.000093  -0.000000
    38  H   -0.000000   0.000009  -0.000002   0.000004   0.000005   0.000000
    39  H   -0.000044  -0.000101  -0.000049   0.000023   0.000050   0.000000
               7          8          9         10         11         12
     1  C   -0.003002  -0.006843   0.002186  -0.001993  -0.000176   0.000125
     2  C    0.006136   0.005915  -0.005150   0.002620   0.000141   0.000094
     3  C   -0.167959  -0.249397   0.006443  -0.071114  -0.005514   0.006677
     4  N   -0.317419  -0.156262   0.037415  -0.069486  -0.017192   0.000912
     5  C    0.238426  -0.686097   0.766774  -0.658068  -0.081101   0.124717
     6  O   -0.097156  -0.331423   0.300353  -0.124093   0.008028  -0.011913
     7  N    7.768240  -0.266294   0.304767  -0.008924  -0.053664   0.059040
     8  C   -0.266294  20.870208  -6.578963   1.061537   1.350848  -3.497243
     9  C    0.304767  -6.578963  24.166882  -4.242129  -4.294324  -0.487662
    10  C   -0.008924   1.061537  -4.242129  15.077960  -0.660262  -0.836662
    11  C   -0.053664   1.350848  -4.294324  -0.660262  10.069062  -0.638460
    12  C    0.059040  -3.497243  -0.487662  -0.836662  -0.638460  10.670901
    13  C    0.044189  -6.237233  -4.975373  -3.043733   0.458019   0.029061
    14  H    0.000010  -0.000024   0.000001  -0.000001  -0.000000   0.000000
    15  H    0.000024  -0.000000   0.000018  -0.000006  -0.000000   0.000000
    16  H   -0.000514   0.000301  -0.001024   0.000408   0.000005   0.000002
    17  H    0.000559  -0.001113   0.000891  -0.000220  -0.000006   0.000001
    18  H   -0.001150   0.004088  -0.004196   0.000953  -0.000034   0.000028
    19  H    0.001273  -0.009090   0.005642  -0.001200   0.000044  -0.000012
    20  H    0.030383   0.006144   0.005960  -0.001794   0.000603  -0.000048
    21  H   -0.008657  -0.069581   0.200512  -0.016699  -0.006990   0.050962
    22  H   -0.002488  -0.000110   0.021945   0.218646   0.059417  -0.002841
    23  H    0.000362   0.014659  -0.002559  -0.039214   0.338078   0.025023
    24  N   -0.009751   0.082481   0.179922   0.062156  -0.011453   0.070531
    25  H   -0.000057   0.002284   0.063124   0.008827  -0.078513   0.263052
    26  O    0.000280   0.242691  -0.004542  -0.009146  -0.006863   0.111473
    27  O   -0.000449   0.087925  -0.045232  -0.051799   0.202698  -0.123446
    28  H    0.000002   0.000044  -0.000080   0.000008   0.000000   0.000000
    29  H    0.184096   0.029964   0.062325  -0.117026  -0.003328  -0.003434
    30  O   -0.006705  -0.089455   0.000051   0.058982   0.018120   0.001668
    31  O    0.011395  -0.001940   0.003335  -0.000024  -0.000057   0.000150
    32  C   -0.010799  -0.003655  -0.003510   0.004165  -0.001295   0.001011
    33  C   -0.010964   0.009614  -0.004122  -0.010592  -0.003080  -0.000870
    34  C    0.001947  -0.004080  -0.001352   0.005026   0.000682   0.000111
    35  H    0.000067  -0.001916  -0.000206   0.001660   0.000497   0.000013
    36  H   -0.000002   0.000420   0.000035  -0.000262  -0.000182   0.000002
    37  H   -0.000003   0.000056   0.000002  -0.000020  -0.000004   0.000000
    38  H   -0.000003   0.000013   0.000000  -0.000011  -0.000001   0.000000
    39  H    0.000005  -0.000133  -0.000010   0.000114   0.000012   0.000000
              13         14         15         16         17         18
     1  C   -0.000637   0.432213   0.422537  -0.017961  -0.033025  -0.001042
     2  C    0.000667  -0.106924  -0.069502   0.408387   0.431929  -0.048641
     3  C   -0.071531   0.026953  -0.011209  -0.069896  -0.098143   0.436085
     4  N   -0.016272   0.000389   0.000400   0.006862   0.007323  -0.051465
     5  C   -0.887845  -0.001484   0.001780  -0.011880   0.007357  -0.029795
     6  O    0.117663   0.000005  -0.000030  -0.000213  -0.000045   0.001932
     7  N    0.044189   0.000010   0.000024  -0.000514   0.000559  -0.001150
     8  C   -6.237233  -0.000024  -0.000000   0.000301  -0.001113   0.004088
     9  C   -4.975373   0.000001   0.000018  -0.001024   0.000891  -0.004196
    10  C   -3.043733  -0.000001  -0.000006   0.000408  -0.000220   0.000953
    11  C    0.458019  -0.000000  -0.000000   0.000005  -0.000006  -0.000034
    12  C    0.029061   0.000000   0.000000   0.000002   0.000001   0.000028
    13  C   22.272436  -0.000000   0.000000  -0.000079   0.000056  -0.000328
    14  H   -0.000000   0.482199  -0.024008  -0.003117  -0.003102  -0.000054
    15  H    0.000000  -0.024008   0.487917  -0.004664   0.003771  -0.000291
    16  H   -0.000079  -0.003117  -0.004664   0.489652  -0.031308   0.003815
    17  H    0.000056  -0.003102   0.003771  -0.031308   0.489430  -0.005361
    18  H   -0.000328  -0.000054  -0.000291   0.003815  -0.005361   0.500027
    19  H    0.000686  -0.000051   0.002838  -0.005230   0.003808  -0.040839
    20  H    0.000982  -0.000002  -0.000000   0.000667   0.000564   0.001780
    21  H    0.140364  -0.000000  -0.000000  -0.000000  -0.000000  -0.000001
    22  H   -0.006115   0.000000   0.000000  -0.000000   0.000000  -0.000000
    23  H   -0.022141  -0.000000   0.000000   0.000000   0.000000   0.000000
    24  N   -0.736795   0.000000  -0.000000  -0.000000   0.000000   0.000000
    25  H    0.065736   0.000000  -0.000000  -0.000000  -0.000000  -0.000000
    26  O   -0.423466  -0.000000   0.000000  -0.000000   0.000000  -0.000000
    27  O   -0.171822   0.000000   0.000000   0.000000   0.000000  -0.000000
    28  H   -0.000006  -0.023922  -0.028589   0.003785  -0.004614   0.002715
    29  H    0.019062  -0.000000  -0.000000   0.000002   0.000001   0.000003
    30  O   -0.001678  -0.000000   0.000000   0.000012   0.000018  -0.000006
    31  O    0.000867  -0.000024  -0.000001  -0.000791   0.000032  -0.000057
    32  C   -0.003488  -0.000022  -0.000023  -0.000175  -0.000615   0.000404
    33  C   -0.002032   0.000009  -0.000005   0.000490  -0.000642   0.000101
    34  C   -0.000066   0.000001   0.000000  -0.000104  -0.000081  -0.000008
    35  H   -0.000002   0.000000   0.000000  -0.000000   0.000000  -0.000000
    36  H   -0.000005  -0.000000   0.000000  -0.000000   0.000000   0.000000
    37  H   -0.000000   0.000000  -0.000000   0.000000   0.000000   0.000000
    38  H   -0.000000  -0.000000   0.000000  -0.000000  -0.000000   0.000000
    39  H   -0.000000   0.000000  -0.000000   0.000000   0.000000   0.000000
              19         20         21         22         23         24
     1  C   -0.006252  -0.001470   0.000008   0.000000   0.000000   0.000001
     2  C   -0.039173   0.002681   0.000075   0.000015   0.000000  -0.000062
     3  C    0.438077  -0.065116   0.002960   0.000230   0.000011   0.000545
     4  N   -0.053344   0.186136  -0.000411   0.000756   0.000008   0.000592
     5  C   -0.032256   0.029937   0.021509   0.010687   0.001807  -0.001609
     6  O    0.003537   0.005615  -0.005166   0.000031  -0.000002   0.001549
     7  N    0.001273   0.030383  -0.008657  -0.002488   0.000362  -0.009751
     8  C   -0.009090   0.006144  -0.069581  -0.000110   0.014659   0.082481
     9  C    0.005642   0.005960   0.200512   0.021945  -0.002559   0.179922
    10  C   -0.001200  -0.001794  -0.016699   0.218646  -0.039214   0.062156
    11  C    0.000044   0.000603  -0.006990   0.059417   0.338078  -0.011453
    12  C   -0.000012  -0.000048   0.050962  -0.002841   0.025023   0.070531
    13  C    0.000686   0.000982   0.140364  -0.006115  -0.022141  -0.736795
    14  H   -0.000051  -0.000002  -0.000000   0.000000  -0.000000   0.000000
    15  H    0.002838  -0.000000  -0.000000   0.000000   0.000000  -0.000000
    16  H   -0.005230   0.000667  -0.000000  -0.000000   0.000000  -0.000000
    17  H    0.003808   0.000564  -0.000000   0.000000   0.000000   0.000000
    18  H   -0.040839   0.001780  -0.000001  -0.000000   0.000000   0.000000
    19  H    0.500251   0.001575   0.000000   0.000000  -0.000000   0.000002
    20  H    0.001575   0.262221   0.000001   0.000004  -0.000000   0.000001
    21  H    0.000000   0.000001   0.416732  -0.000082   0.000010  -0.033132
    22  H    0.000000   0.000004  -0.000082   0.427168  -0.003227  -0.000044
    23  H   -0.000000  -0.000000   0.000010  -0.003227   0.419013   0.000331
    24  N    0.000002   0.000001  -0.033132  -0.000044   0.000331   6.811591
    25  H    0.000000  -0.000000  -0.000097  -0.000109  -0.002990  -0.032802
    26  O   -0.000000   0.000000   0.017259  -0.000000   0.000042   0.448770
    27  O    0.000000  -0.000000  -0.001927  -0.000003  -0.000084   0.419903
    28  H   -0.000323   0.000000   0.000000  -0.000000   0.000000  -0.000000
    29  H    0.000004   0.003429  -0.000081   0.004241  -0.000006  -0.000020
    30  O    0.000002   0.001378   0.000002  -0.000869  -0.000005  -0.000005
    31  O    0.000043   0.043242   0.000001   0.000012   0.000000   0.000001
    32  C   -0.000054  -0.006119  -0.000041   0.000041  -0.000026  -0.000005
    33  C   -0.000020   0.000929  -0.000003   0.000281  -0.000002   0.000003
    34  C    0.000002  -0.000149  -0.000000  -0.000051  -0.000000  -0.000000
    35  H    0.000000  -0.000004   0.000000   0.000000  -0.000000   0.000000
    36  H   -0.000000  -0.000004  -0.000000   0.000000   0.000000  -0.000000
    37  H   -0.000000   0.000001  -0.000000   0.000000   0.000000  -0.000000
    38  H    0.000000  -0.000000  -0.000000   0.000000   0.000000  -0.000000
    39  H    0.000000   0.000000   0.000000   0.000000  -0.000000   0.000000
              25         26         27         28         29         30
     1  C    0.000000  -0.000001   0.000000   0.423289   0.000177   0.000072
     2  C    0.000000   0.000033  -0.000000  -0.070769   0.000589  -0.001264
     3  C    0.000003   0.000054   0.000109  -0.008323   0.007477   0.008905
     4  N   -0.000001  -0.000331   0.000037   0.000342   0.027160   0.008452
     5  C    0.000523  -0.001536   0.004205  -0.000448  -0.015846   0.001881
     6  O    0.000004  -0.000532   0.000006  -0.000049   0.003928  -0.000332
     7  N   -0.000057   0.000280  -0.000449   0.000002   0.184096  -0.006705
     8  C    0.002284   0.242691   0.087925   0.000044   0.029964  -0.089455
     9  C    0.063124  -0.004542  -0.045232  -0.000080   0.062325   0.000051
    10  C    0.008827  -0.009146  -0.051799   0.000008  -0.117026   0.058982
    11  C   -0.078513  -0.006863   0.202698   0.000000  -0.003328   0.018120
    12  C    0.263052   0.111473  -0.123446   0.000000  -0.003434   0.001668
    13  C    0.065736  -0.423466  -0.171822  -0.000006   0.019062  -0.001678
    14  H    0.000000  -0.000000   0.000000  -0.023922  -0.000000  -0.000000
    15  H   -0.000000   0.000000   0.000000  -0.028589  -0.000000   0.000000
    16  H   -0.000000  -0.000000   0.000000   0.003785   0.000002   0.000012
    17  H   -0.000000   0.000000   0.000000  -0.004614   0.000001   0.000018
    18  H   -0.000000  -0.000000  -0.000000   0.002715   0.000003  -0.000006
    19  H    0.000000  -0.000000   0.000000  -0.000323   0.000004   0.000002
    20  H   -0.000000   0.000000  -0.000000   0.000000   0.003429   0.001378
    21  H   -0.000097   0.017259  -0.001927   0.000000  -0.000081   0.000002
    22  H   -0.000109  -0.000000  -0.000003  -0.000000   0.004241  -0.000869
    23  H   -0.002990   0.000042  -0.000084   0.000000  -0.000006  -0.000005
    24  N   -0.032802   0.448770   0.419903  -0.000000  -0.000020  -0.000005
    25  H    0.424827  -0.001728   0.015334  -0.000000  -0.000000   0.000000
    26  O   -0.001728   7.858838  -0.122595  -0.000000   0.000001  -0.000000
    27  O    0.015334  -0.122595   7.897859   0.000000  -0.000001   0.000000
    28  H   -0.000000  -0.000000   0.000000   0.488036   0.000000   0.000000
    29  H   -0.000000   0.000001  -0.000001   0.000000   0.257136   0.036231
    30  O    0.000000  -0.000000   0.000000   0.000000   0.036231   8.641580
    31  O    0.000000  -0.000000   0.000000  -0.000000   0.002023  -0.170378
    32  C    0.000001   0.000004  -0.000001   0.000001  -0.004324   0.401153
    33  C   -0.000000   0.000000  -0.000000   0.000002   0.003664  -0.223561
    34  C   -0.000000  -0.000000  -0.000000  -0.000001  -0.000237   0.034509
    35  H    0.000000  -0.000000   0.000000   0.000000  -0.000002  -0.001406
    36  H   -0.000000   0.000000  -0.000000  -0.000000  -0.000004  -0.002798
    37  H   -0.000000   0.000000   0.000000  -0.000000   0.000000  -0.000167
    38  H    0.000000   0.000000   0.000000   0.000000   0.000000  -0.000347
    39  H    0.000000  -0.000000   0.000000   0.000000   0.000000   0.000142
              31         32         33         34         35         36
     1  C    0.003356  -0.001831   0.001707  -0.000523  -0.000003   0.000001
     2  C    0.006762  -0.006557   0.000260  -0.000428  -0.000020   0.000001
     3  C   -0.016659   0.005837   0.014244  -0.002160  -0.000010   0.000014
     4  N   -0.030233  -0.008102  -0.007348   0.002152   0.000010   0.000031
     5  C    0.005973  -0.003136  -0.014982   0.000907   0.000024  -0.000219
     6  O   -0.000272  -0.000356  -0.000320   0.000042  -0.000000  -0.000000
     7  N    0.011395  -0.010799  -0.010964   0.001947   0.000067  -0.000002
     8  C   -0.001940  -0.003655   0.009614  -0.004080  -0.001916   0.000420
     9  C    0.003335  -0.003510  -0.004122  -0.001352  -0.000206   0.000035
    10  C   -0.000024   0.004165  -0.010592   0.005026   0.001660  -0.000262
    11  C   -0.000057  -0.001295  -0.003080   0.000682   0.000497  -0.000182
    12  C    0.000150   0.001011  -0.000870   0.000111   0.000013   0.000002
    13  C    0.000867  -0.003488  -0.002032  -0.000066  -0.000002  -0.000005
    14  H   -0.000024  -0.000022   0.000009   0.000001   0.000000  -0.000000
    15  H   -0.000001  -0.000023  -0.000005   0.000000   0.000000   0.000000
    16  H   -0.000791  -0.000175   0.000490  -0.000104  -0.000000  -0.000000
    17  H    0.000032  -0.000615  -0.000642  -0.000081   0.000000   0.000000
    18  H   -0.000057   0.000404   0.000101  -0.000008  -0.000000   0.000000
    19  H    0.000043  -0.000054  -0.000020   0.000002   0.000000  -0.000000
    20  H    0.043242  -0.006119   0.000929  -0.000149  -0.000004  -0.000004
    21  H    0.000001  -0.000041  -0.000003  -0.000000   0.000000  -0.000000
    22  H    0.000012   0.000041   0.000281  -0.000051   0.000000   0.000000
    23  H    0.000000  -0.000026  -0.000002  -0.000000  -0.000000   0.000000
    24  N    0.000001  -0.000005   0.000003  -0.000000   0.000000  -0.000000
    25  H    0.000000   0.000001  -0.000000  -0.000000   0.000000  -0.000000
    26  O   -0.000000   0.000004   0.000000  -0.000000  -0.000000   0.000000
    27  O    0.000000  -0.000001  -0.000000  -0.000000   0.000000  -0.000000
    28  H   -0.000000   0.000001   0.000002  -0.000001   0.000000  -0.000000
    29  H    0.002023  -0.004324   0.003664  -0.000237  -0.000002  -0.000004
    30  O   -0.170378   0.401153  -0.223561   0.034509  -0.001406  -0.002798
    31  O    8.793387   0.290742  -0.105005   0.021506   0.001635   0.001993
    32  C    0.290742   5.101668  -0.265507  -0.101508  -0.067186  -0.050052
    33  C   -0.105005  -0.265507   6.510227  -0.036403   0.426705   0.409103
    34  C    0.021506  -0.101508  -0.036403   5.663453  -0.043619  -0.041767
    35  H    0.001635  -0.067186   0.426705  -0.043619   0.456849  -0.021917
    36  H    0.001993  -0.050052   0.409103  -0.041767  -0.021917   0.456716
    37  H   -0.001447  -0.016060  -0.045590   0.409912  -0.003972   0.003413
    38  H    0.001280   0.030839  -0.078677   0.392468  -0.002273  -0.002259
    39  H   -0.001800  -0.010363  -0.050037   0.408719   0.003422  -0.003912
              37         38         39
     1  C    0.000020  -0.000000  -0.000044
     2  C   -0.000043   0.000009  -0.000101
     3  C   -0.000008  -0.000002  -0.000049
     4  N    0.000003   0.000004   0.000023
     5  C   -0.000093   0.000005   0.000050
     6  O   -0.000000   0.000000   0.000000
     7  N   -0.000003  -0.000003   0.000005
     8  C    0.000056   0.000013  -0.000133
     9  C    0.000002   0.000000  -0.000010
    10  C   -0.000020  -0.000011   0.000114
    11  C   -0.000004  -0.000001   0.000012
    12  C    0.000000   0.000000   0.000000
    13  C   -0.000000  -0.000000  -0.000000
    14  H    0.000000  -0.000000   0.000000
    15  H   -0.000000   0.000000  -0.000000
    16  H    0.000000  -0.000000   0.000000
    17  H    0.000000  -0.000000   0.000000
    18  H    0.000000   0.000000   0.000000
    19  H   -0.000000   0.000000   0.000000
    20  H    0.000001  -0.000000   0.000000
    21  H   -0.000000  -0.000000   0.000000
    22  H    0.000000   0.000000   0.000000
    23  H    0.000000   0.000000  -0.000000
    24  N   -0.000000  -0.000000   0.000000
    25  H   -0.000000   0.000000   0.000000
    26  O    0.000000   0.000000  -0.000000
    27  O    0.000000   0.000000   0.000000
    28  H   -0.000000   0.000000   0.000000
    29  H    0.000000   0.000000   0.000000
    30  O   -0.000167  -0.000347   0.000142
    31  O   -0.001447   0.001280  -0.001800
    32  C   -0.016060   0.030839  -0.010363
    33  C   -0.045590  -0.078677  -0.050037
    34  C    0.409912   0.392468   0.408719
    35  H   -0.003972  -0.002273   0.003422
    36  H    0.003413  -0.002259  -0.003912
    37  H    0.487727  -0.025419  -0.026652
    38  H   -0.025419   0.496091  -0.025384
    39  H   -0.026652  -0.025384   0.487433
 Mulliken charges:
               1
     1  C   -0.816969
     2  C   -0.330495
     3  C   -0.090588
     4  N   -0.701743
     5  C    0.660584
     6  O   -0.732700
     7  N   -0.685241
     8  C    0.421660
     9  C    0.521852
    10  C   -0.538586
    11  C   -0.643758
    12  C    0.187037
    13  C   -0.549140
    14  H    0.220954
    15  H    0.219042
    16  H    0.232568
    17  H    0.232534
    18  H    0.231341
    19  H    0.230058
    20  H    0.490472
    21  H    0.292473
    22  H    0.272464
    23  H    0.270911
    24  N   -0.252701
    25  H    0.272582
    26  O   -0.108704
    27  O   -0.110719
    28  H    0.218900
    29  H    0.502793
    30  O   -0.714183
    31  O   -0.859047
    32  C    0.728945
    33  C   -0.517576
    34  C   -0.708899
    35  H    0.251652
    36  H    0.251654
    37  H    0.218345
    38  H    0.213666
    39  H    0.218564
 Sum of Mulliken charges =  -1.00000
 Mulliken charges with hydrogens summed into heavy atoms:
               1
     1  C   -0.158073
     2  C    0.134607
     3  C    0.370811
     4  N   -0.211271
     5  C    0.660584
     6  O   -0.732700
     7  N   -0.182448
     8  C    0.421660
     9  C    0.814325
    10  C   -0.266122
    11  C   -0.372848
    12  C    0.459618
    13  C   -0.549140
    24  N   -0.252701
    26  O   -0.108704
    27  O   -0.110719
    30  O   -0.714183
    31  O   -0.859047
    32  C    0.728945
    33  C   -0.014270
    34  C   -0.058324
 Electronic spatial extent (au):  <R**2>=          10373.4927
 Charge=             -1.0000 electrons
 Dipole moment (field-independent basis, Debye):
    X=              0.2781    Y=             -3.8699    Z=             -1.1301  Tot=              4.0411
 Quadrupole moment (field-independent basis, Debye-Ang):
   XX=           -199.7913   YY=           -132.2433   ZZ=           -128.6094
   XY=            -28.7699   XZ=             -4.3975   YZ=              0.3887
 Traceless Quadrupole moment (field-independent basis, Debye-Ang):
   XX=            -46.2433   YY=             21.3047   ZZ=             24.9386
   XY=            -28.7699   XZ=             -4.3975   YZ=              0.3887
 Octapole moment (field-independent basis, Debye-Ang**2):
  XXX=           -183.6743  YYY=            -45.2257  ZZZ=              5.9242  XYY=            -20.6639
  XXY=            -71.3985  XXZ=            -28.8544  XZZ=              1.4345  YZZ=              4.5355
  YYZ=             -6.2657  XYZ=              1.3038
 Hexadecapole moment (field-independent basis, Debye-Ang**3):
 XXXX=         -12415.1407 YYYY=          -3828.4567 ZZZZ=           -211.7421 XXXY=           -368.3568
 XXXZ=           -137.1669 YYYX=            -67.1936 YYYZ=             15.0757 ZZZX=             22.8768
 ZZZY=             -2.3481 XXYY=          -2158.5293 XXZZ=          -1667.7422 YYZZ=           -668.2360
 XXYZ=            -24.5068 YYXZ=            -29.7426 ZZXY=             31.0544
 N-N= 1.597040239314D+03 E-N=-5.653960526759D+03  KE= 1.036881748912D+03
 D1PCM: PCM CHGder 1st derivatives, ID1Alg=3 FixD1E=F DoIter=F DoCFld=F I1PDM=0.
 Calling FoFJK, ICntrl=      2127 FMM=F ISym2X=0 I1Cent= 0 IOpClX= 0 NMat=1 NMatS=1 NMatT=0.
 ***** Axes restored to original set *****
 -------------------------------------------------------------------
 Center     Atomic                   Forces (Hartrees/Bohr)
 Number     Number              X              Y              Z
 -------------------------------------------------------------------
      1        6           0.003792372    0.000215805   -0.003742345
      2        6          -0.005130626   -0.003498226    0.002670922
      3        6           0.004937741    0.003633162   -0.002039458
      4        7          -0.051731522   -0.065205097    0.006838592
      5        6           0.000358731   -0.019408634   -0.013080411
      6        8           0.020111080    0.037602499    0.005979871
      7        7          -0.044449318   -0.056229553    0.008247868
      8        6           0.010339780    0.000037669   -0.012179072
      9        6          -0.001792856    0.005401474    0.003790377
     10        6           0.001242882    0.002237970    0.000370426
     11        6           0.008856445    0.004522974   -0.009014198
     12        6           0.001442746    0.013517995    0.006376431
     13        6          -0.018552828   -0.054348519   -0.009168845
[...]
 2,0.00155515,-0.00136377,0.00096601,-0.00127466,-0.00546070,0.00297874
 ,-0.02704731,0.01094066,-0.00261860,0.07735486,-0.07048195,-0.00371282
 ,0.01748646,-0.00670923,-0.00028378,-0.08586950,0.07874345,0.00000016,
 -0.00000002,-0.00000057,-0.00000063,-0.00000190,0.00000088,0.00000286,
 0.00000038,-0.00000002,0.00001299,0.00001958,0.00000906,0.00003538,0.0
 0000378,-0.00002710,-0.00001897,-0.00001268,0.00000505,-0.00003175,-0.
 00006229,-0.00000989,-0.00001777,0.00000946,0.00002654,0.00000252,-0.0
 0000655,-0.00000714,0.00000519,0.00000462,-0.00000622,-0.00000212,-0.0
 0000111,0.00000198,0.00000216,-0.00000131,-0.00000298,-0.00000220,-0.0
 0000111,0.00000186,-0.00000027,0.00000019,0.00000070,-0.00000019,0.000
 00011,-0.00000001,-0.00000090,-0.00000053,-0.00000035,0.00000045,-0.00
 000020,-0.00000099,-0.00000055,-0.00000005,0.00000073,-0.00000057,-0.0
 0000023,0.00000013,-0.00000653,-0.00000120,-0.00002045,0.00000037,0.00
 000050,0.00000035,-0.00000652,0.00000426,0.00000910,0.00000042,-0.0000
 0039,-0.00000089,0.00000125,0.00000309,0.00000156,-0.00000008,-0.00000
 016,-0.00000003,-0.00000066,-0.00000121,-0.00000062,0.00000004,-0.0000
 0206,-0.00000189,0.00000011,0.00000019,0.00000009,0.00007928,0.0001542
 0,0.00002094,-0.00076821,-0.00186333,-0.00068681,-0.00003223,0.0008011
 6,0.00028898,0.00110347,0.00233629,-0.00161699,0.00282450,-0.00341065,
 -0.04472734,0.02692818,-0.00916790,-0.00079814,-0.00460095,0.00564447,
 0.04914532,0.00000210,-0.00000140,-0.00000037,-0.00000879,0.00000336,0
 .00000117,0.00002915,-0.00000872,-0.00003116,-0.00008429,-0.00023657,-
 0.00007502,-0.00005786,0.00005881,0.00012378,-0.00001567,-0.00005053,-
 0.00004274,0.00006641,0.00001498,0.00000189,0.00000260,0.00000898,0.00
 000046,-0.00000265,-0.00000043,-0.00000029,0.00000132,-0.00000420,-0.0
 0000206,0.00000043,0.00000124,-0.00000026,-0.00000010,-0.00000065,-0.0
 0000041,0.00000058,0.00000012,-0.00000060,-0.00000121,0.00000017,0.000
 00150,-0.00000152,-0.00000047,0.00000028,-0.00000039,-0.00000301,0.000
 00661,0.00000017,0.00000374,-0.00000181,-0.00000708,-0.00000460,0.0000
 0653,-0.00000859,-0.00000188,0.00000368,0.00016506,0.00036874,0.000052
 79,0.00000023,0.00000061,0.00000028,0.00000107,0.00000211,-0.00000022,
 0.00000014,0.00000024,0.00000033,0.00000154,0.00000132,0.00000051,0.00
 000012,0.00000007,0.00000009,-0.00000110,-0.00000075,0.00000022,-0.000
 00041,-0.00000040,-0.00000027,-0.00000122,-0.00000103,0.00000102,-0.00
 007578,-0.00000619,-0.00003300,-0.00054232,0.00215394,-0.00058032,-0.0
 0502380,-0.00168185,-0.00098785,0.00388565,-0.01345431,0.01847129,-0.0
 4745392,0.01921105,-0.02988256,0.00034084,-0.00345999,0.00500245,-0.00
 374132,0.01816062,-0.02602786,0.05133141,0.00000364,-0.00000089,-0.000
 00195,-0.00001170,0.00000105,0.00000337,0.00004445,-0.00001281,-0.0000
 4794,-0.00012077,-0.00030867,-0.00010260,-0.00004714,0.00009624,0.0001
 4812,-0.00004784,-0.00009564,-0.00005473,0.00003496,-0.00007402,-0.000
 02645,-0.00002455,0.00003131,0.00004077,0.00000084,-0.00001178,-0.0000
 1215,0.00000991,-0.00000302,-0.00001206,-0.00000400,0.00000038,0.00000
 231,0.00000338,-0.00000343,-0.00000544,-0.00000303,0.00000108,0.000001
 91,-0.00000217,0.00000082,0.00000283,-0.00000290,-0.00000057,0.0000003
 8,0.00000036,-0.00000582,0.00001018,-0.00000115,0.00000555,-0.00000346
 ,-0.00001255,-0.00000779,0.00001029,-0.00001477,-0.00000345,0.00000599
 ,0.00026894,0.00048597,0.00007843,0.00000096,0.00000187,0.00000130,-0.
 00000356,0.00000498,0.00001089,0.00000174,-0.00000043,-0.00000148,0.00
 000160,0.00000370,0.00000194,0.00000022,-0.00000018,0.00000003,-0.0000
 0088,-0.00000176,-0.00000056,0.00000011,-0.00000282,-0.00000243,-0.000
 00191,-0.00000184,0.00000194,0.00001357,0.00017262,-0.00000808,-0.0019
 6854,0.00113132,-0.00259542,-0.00553571,-0.00229792,-0.00078318,0.0086
 0455,-0.01375515,0.02305449,0.02110881,-0.13018311,0.12269285,-0.00311
 258,0.01130777,-0.01779264,0.00116727,-0.00565606,0.00739650,-0.020773
 42,0.13933108,0.00000025,-0.00000105,0.00000160,-0.00000398,0.00000261
 ,-0.00000402,-0.00000610,0.00000634,0.00000714,0.00003932,0.00005452,0
 .00002884,0.00004445,-0.00001451,-0.00005720,-0.00000806,0.00000637,0.
 00001490,-0.00003426,-0.00001835,-0.00000729,-0.00000863,-0.00000168,0
 .00001318,0.00000041,-0.00000166,-0.00000306,0.00000181,0.00000638,-0.
 00000157,0.00000091,-0.00000112,0.00000193,0.00000012,0.00000067,-0.00
 000156,-0.00000117,-0.00000272,0.00000075,-0.00000017,0.00000007,-0.00
 000026,0.00000144,0.00000037,0.00000006,-0.00000032,-0.00000065,-0.000
 00139,0.00000255,-0.00000140,0.00000074,0.00000230,0.00000074,-0.00000
 151,0.00000330,0.00000130,-0.00000042,-0.00004999,-0.00005102,-0.00003
 029,-0.00000021,0.00000027,-0.00000055,-0.00000441,0.00000529,0.000007
 20,-0.00000094,-0.00000026,0.00000049,0.00000182,0.00000433,0.00000035
 ,-0.00000028,0.00000004,0.,-0.00000115,-0.00000183,0.00000045,-0.00000
 008,-0.00000196,-0.00000102,0.00000003,0.00000011,-0.00000008,0.000084
 18,0.00010177,0.00003991,-0.00057295,-0.00181556,0.00034115,-0.0001822
 0,0.00110143,0.00071174,0.00190991,-0.00152003,-0.00021159,-0.03134087
 ,0.12181720,-0.22805964,-0.00403191,0.01365980,-0.02177872,-0.00030329
 ,-0.00033483,0.00029672,0.03327415,-0.12987014,0.24997015,0.00000103,-
 0.00000051,0.00000104,-0.00000671,0.00000444,-0.00000491,-0.00000285,0
 .00000049,0.00000343,0.00001394,0.00003047,0.00001223,0.00000719,-0.00
 001261,-0.00001534,0.00000510,0.00001147,0.00000611,-0.00000023,0.0000
 1000,0.00000791,0.00000297,-0.00000336,-0.00000722,0.00000002,0.000001
 80,0.00000200,-0.00000286,0.00000071,-0.00000007,0.00000166,-0.0000010
 6,0.00000078,-0.00000129,0.00000102,0.00000046,0.00000086,-0.00000057,
 -0.00000029,-0.00000066,0.00000050,0.00000054,0.00000143,0.00000022,0.
 00000016,-0.00000005,0.00000026,-0.00000103,0.00000423,-0.00000166,0.0
 0000258,0.00000140,0.00000129,-0.00000128,0.00000204,0.00000147,0.0000
 0085,-0.00003730,-0.00004615,-0.00000987,-0.00000006,-0.00000027,-0.00
 000019,0.00000059,-0.00000044,-0.00000047,-0.00000003,0.00000009,0.000
 00017,-0.00000012,-0.00000051,-0.00000066,0.00000004,0.,-0.00000001,-0
 .00000001,0.00000024,0.00000025,-0.00000007,0.00000048,0.00000056,0.00
 000002,0.00000013,-0.00000039,-0.00000980,-0.00001818,-0.00000441,-0.0
 0003029,0.00004959,0.00004640,0.00017563,0.00026230,-0.00004490,-0.000
 15488,-0.00016127,-0.00051206,0.00045187,-0.00381207,0.00572650,-0.055
 77243,0.02355735,-0.03660923,0.00023640,-0.00061216,-0.00011831,0.0007
 8703,0.00074246,0.00121881,0.05432315,-0.00000008,0.00000065,0.0000017
 1,-0.00000122,0.00000148,-0.00000194,-0.00000258,-0.00000054,0.0000026
 2,0.00000452,0.00001080,0.00000362,0.00000132,-0.00000431,-0.00000182,
 0.00000292,0.00000424,0.00000127,0.00000148,0.00000882,-0.00000184,0.0
 0000124,-0.00000148,-0.00000319,-0.00000044,0.00000087,0.00000041,-0.0
 0000123,-0.00000054,-0.00000016,0.00000113,-0.00000044,0.00000007,-0.0
 0000062,0.00000054,0.00000007,0.00000085,-0.00000052,0.00000050,0.0000
 0052,-0.00000078,-0.00000090,-0.00000003,-0.00000027,-0.00000013,0.000
 00088,-0.00000057,0.00000046,0.00000064,0.00000192,0.00000074,0.000000
 51,0.00000074,-0.00000101,0.00000060,0.00000010,0.00000001,-0.00000949
 ,-0.00002445,-0.00000366,0.00000006,-0.00000014,-0.00000003,0.00000033
 ,-0.00000014,0.00000011,-0.00000017,0.,0.00000012,-0.00000041,-0.00000
 053,-0.00000034,-0.00000004,0.00000002,0.00000002,0.00000017,0.0000003
 3,0.00000001,0.00000002,0.00000035,0.00000029,0.00000002,0.00000020,-0
 .00000044,-0.00000326,-0.00001533,0.00000662,0.00033727,0.00000146,0.0
 0013359,-0.00007459,-0.00032048,-0.00071919,-0.00088063,0.00059963,0.0
 0046864,-0.00351370,0.01119049,-0.01723637,0.02422738,-0.12665143,0.12
 331979,-0.00019684,0.00090060,0.00091666,0.00022734,-0.00166612,-0.003
 57275,-0.02629249,0.13521344,0.00000101,-0.00000096,-0.00000115,-0.000
 00645,-0.00000089,-0.00000094,0.00000244,0.00000176,-0.00000430,-0.000
 00202,-0.00000314,0.00000581,0.00001825,-0.00000224,-0.00002203,-0.000
 00959,-0.00000700,0.00000528,-0.00003170,-0.00004994,-0.00000752,-0.00
 001084,0.00000117,0.00001183,0.00000062,-0.00000308,-0.00000313,0.0000
 0450,0.00000433,-0.00000194,0.00000022,-0.00000086,0.00000121,0.000000
 48,-0.00000073,-0.00000098,-0.00000073,-0.00000231,0.00000038,-0.00000
 079,0.00000136,0.00000142,0.00000072,0.00000038,0.00000013,0.00000074,
 -0.00000079,0.00000043,0.00000115,-0.00000179,0.00000191,-0.00000079,-
 0.00000074,0.00000093,-0.00000041,0.00000099,0.00000125,-0.00000061,0.
 00000661,0.00000328,-0.00000027,0.00000048,-0.00000044,-0.00000308,0.0
 0000227,0.00000217,-0.00000002,0.00000047,-0.00000029,0.00000180,0.000
 00346,-0.00000048,-0.00000015,-0.00000001,-0.00000030,-0.00000118,-0.0
 0000170,0.00000055,-0.00000027,-0.00000169,-0.00000063,-0.00000024,-0.
 00000061,0.00000057,0.00005103,0.00007932,0.00001905,-0.00034656,-0.00
 070088,0.00014637,-0.00039953,0.00002545,0.00141498,0.00152932,0.00186
 886,-0.00031332,-0.00467404,0.01433979,-0.02261409,-0.03661676,0.12120
 117,-0.23491484,0.00020182,0.00024930,0.00118923,0.00116010,-0.0039564
 0,-0.00356302,0.03842952,-0.13135190,0.25612447,0.00000080,-0.00000005
 ,-0.00000027,-0.00000098,0.00000103,-0.00000164,0.00000269,-0.00000215
 ,-0.00000567,-0.00001669,-0.00003508,-0.00001229,-0.00001187,0.0000186
 5,0.00002659,-0.00000240,-0.00001284,-0.00000838,0.00001860,0.00001596
 ,-0.00000445,0.00000070,0.00000189,0.00000122,-0.00000034,-0.00000028,
 -0.00000020,-0.00000032,-0.00000068,-0.00000039,0.00000015,0.00000030,
 0.00000055,0.00000003,0.00000008,-0.00000032,0.00000001,0.00000004,0.,
 0.00000005,0.00000041,0.00000018,-0.00000090,-0.00000010,-0.00000003,0
 .00000211,-0.00000107,0.00000182,-0.00000062,0.00000120,-0.00000081,-0
 .00000145,-0.00000149,0.00000089,-0.00000218,-0.00000081,0.00000094,0.
 00004903,0.00005975,0.00000810,0.00000014,0.00000014,0.00000028,0.0000
 0034,0.00000073,0.00000065,0.00000031,0.00000023,-0.00000008,-0.000000
 19,0.00000075,0.00000057,0.00000008,-0.00000004,-0.00000007,0.00000004
 ,-0.00000017,-0.00000013,0.00000012,-0.00000042,-0.00000048,-0.0000005
 0,-0.00000083,0.00000073,-0.00000920,-0.00000902,0.00000595,0.00031903
 ,0.00030870,-0.00000203,0.00016640,-0.00075143,-0.00071239,-0.00016610
 ,0.00052121,0.00186718,0.00403852,0.00701873,0.00052610,-0.15219425,-0
 .13269866,-0.00227816,0.00048773,-0.00016763,-0.00055089,0.00001320,-0
 .00023091,-0.00036976,0.00367707,0.00552532,0.00088938,0.16081453,0.00
 000135,0.00000114,-0.00000092,-0.00000322,-0.00000518,0.00000268,0.000
 02047,-0.00000125,-0.00002191,-0.00006062,-0.00007660,-0.00002762,0.00
 004969,0.00003595,-0.00001292,-0.00005291,-0.00006332,-0.00000389,-0.0
 0009658,-0.00018411,-0.00004541,-0.00004544,0.00002109,0.00006644,0.00
 000444,-0.00001551,-0.00001774,0.00001639,0.00000997,-0.00001308,-0.00
 000254,-0.00000070,0.00000341,0.00000387,-0.00000392,-0.00000735,-0.00
 000518,-0.00000456,0.00000268,-0.00000097,0.00000092,0.00000195,-0.000
 00189,-0.00000026,0.00000012,0.00000064,-0.00000101,0.00000144,-0.0000
 0194,0.00000146,-0.00000172,-0.00000554,-0.00000313,0.00000526,-0.0000
 0766,-0.00000228,0.00000394,0.00012918,0.00015475,0.00002482,0.0000007
 9,0.00000188,0.00000058,-0.00000844,0.00000311,0.00000987,0.00000120,0
 .00000004,-0.00000148,0.00000472,0.00001069,0.00000305,-0.00000013,-0.
 00000037,-0.00000029,-0.00000290,-0.00000477,-0.00000043,-0.00000011,-
 0.00000643,-0.00000471,-0.00000058,-0.00000098,0.00000099,0.00018080,0
 .00032471,0.00005471,-0.00090509,-0.00258622,-0.00159886,-0.00064463,-
 0.00070239,-0.00013884,0.00259717,0.00215637,-0.00202985,-0.01123940,-
 0.01400658,0.00141671,-0.13179225,-0.21763669,-0.00171038,0.00024453,0
 .00033880,0.00063842,0.00004647,0.00083333,0.00007025,-0.01022472,-0.0
 1310141,-0.00078814,0.14508920,0.23415284,0.00000139,0.00000110,0.0000
 0025,-0.00000639,-0.00000237,0.00000048,0.00001716,0.00000209,-0.00001
 622,-0.00003222,-0.00004420,-0.00000420,0.00006740,0.00001344,-0.00004
 886,-0.00005361,-0.00005015,0.00000609,-0.00012645,-0.00021821,-0.0000
 4011,-0.00004870,0.00001963,0.00006872,0.00000460,-0.00001622,-0.00001
 880,0.00001821,0.00001143,-0.00001308,-0.00000265,-0.00000130,0.000003
 10,0.00000367,-0.00000401,-0.00000769,-0.00000520,-0.00000506,0.000003
 01,-0.00000114,0.00000052,0.00000146,-0.00000040,-0.00000008,0.0000001
 0,-0.00000048,-0.00000102,0.00000080,-0.00000010,-0.00000059,0.0000004
 3,-0.00000391,-0.00000190,0.00000389,-0.00000517,-0.00000057,0.0000031
 5,0.00006928,0.00008757,0.00001264,0.00000084,0.00000175,0.00000040,-0
 .00000879,0.00000208,0.00000994,0.00000097,-0.00000034,-0.00000135,0.0
 0000503,0.00001063,0.00000211,-0.00000019,-0.00000038,-0.00000017,-0.0
 0000312,-0.00000488,-0.00000021,-0.00000030,-0.00000622,-0.00000428,-0
 .00000043,-0.00000044,0.00000048,0.00020800,0.00035699,0.00005127,-0.0
 0129247,-0.00324668,-0.00163076,-0.00060020,0.00001619,0.00104967,0.00
 407102,0.00073911,-0.00385571,-0.01887913,-0.02314965,-0.00030609,-0.0
 0130602,-0.00050887,-0.04773330,0.00019089,0.00075770,0.00106983,-0.00
 037594,0.00087291,0.00105021,0.01790025,0.02033167,0.00143859,0.000494
 47,0.00396587,0.05004883,-0.00000087,0.00000212,0.00000197,0.00000403,
 0.00000191,-0.00000022,-0.00000561,0.00000055,0.00000256,0.00000647,0.
 00001047,0.00000192,-0.00001417,0.00000010,0.00001145,0.00001052,0.000
 00729,-0.00000068,0.00002647,0.00003886,0.00000716,0.00000830,-0.00000
 178,-0.00001024,-0.00000045,0.00000275,0.00000275,-0.00000299,-0.00000
 384,0.00000187,0.00000118,-0.00000005,-0.00000055,-0.00000063,0.000000
 61,0.00000102,0.00000097,0.00000131,-0.00000001,0.00000051,-0.00000138
 ,-0.00000217,0.00000071,-0.00000022,0.00000006,0.00000269,0.00000345,0
 .00000034,-0.00000046,0.00000033,0.00000044,0.00000121,-0.00000024,-0.
 00000114,0.00000140,-0.00000007,-0.00000040,-0.00001773,-0.00001472,-0
 .00001387,-0.00000047,0.,-0.00000027,0.00000113,-0.00000052,-0.0000024
 4,-0.00000038,-0.00000007,0.,-0.00000181,-0.00000267,-0.00000024,-0.00
 000013,0.00000017,0.,0.00000124,0.00000119,-0.00000010,0.00000034,0.00
 000132,0.00000080,-0.00000019,-0.00000046,-0.00000025,-0.00003758,-0.0
 0006311,-0.00000960,0.00038458,0.00054583,-0.00008138,0.00085795,-0.00
 082262,-0.00103322,-0.00111166,-0.00129444,0.00096536,-0.00370790,0.00
 150094,0.00017663,-0.29113740,0.08713702,0.00251511,0.00112260,0.00021
 011,0.00118885,0.00039900,-0.00008770,0.00033500,-0.00367402,0.0006432
 8,-0.00018708,-0.01718370,0.00671181,-0.00030014,0.31406685,-0.0000006
 8,0.00000149,-0.00000074,0.00000217,-0.00000883,0.00000606,0.00000002,
 0.00000011,0.00000172,0.00001254,0.00002683,0.00001698,0.00001552,-0.0
 0001421,-0.00002789,-0.00000160,0.00000990,0.00000635,-0.00001458,-0.0
 0001442,0.00000322,0.00000086,-0.00000537,0.00000235,-0.00000071,0.000
 00122,-0.00000055,-0.00000145,0.00000178,-0.00000140,0.00000060,-0.000
 00014,-0.00000032,-0.00000095,0.00000078,0.00000018,0.00000031,-0.0000
 0189,-0.00000065,-0.00000061,0.00000052,0.00000151,0.00000048,-0.00000
 004,-0.00000012,-0.00000384,0.00000508,-0.00000425,0.00000156,-0.00000
 145,0.00000032,0.00000004,0.00000259,0.00000029,0.00000112,0.00000054,
 0.00000015,-0.00003416,-0.00004188,-0.00000847,0.00000034,-0.00000044,
 -0.00000001,-0.00000031,0.00000013,0.00000090,0.00000016,0.00000010,0.
 00000032,0.00000131,0.00000098,-0.00000018,0.00000011,-0.00000011,0.00
 000002,-0.00000088,-0.00000051,0.00000030,-0.00000037,-0.00000018,-0.0
 0000002,0.00000069,0.00000140,-0.00000101,0.00000725,0.00002488,0.0000
 0278,-0.00036478,-0.00009386,-0.00004543,-0.00027226,0.00010322,0.0002
 6860,0.00107188,0.00052686,0.00023194,0.01729486,-0.00679108,0.0001928
 5,0.08535005,-0.07811613,-0.00023535,0.00017576,-0.00142918,-0.0033990
 0,-0.00057351,0.00068422,0.00037169,0.01651122,-0.00614721,-0.00091137
 ,-0.02465065,0.01036067,0.00007243,-0.09452753,0.08091364,-0.00000051,
 0.00000044,-0.00000060,0.00000040,-0.00000229,0.00000102,0.00000271,-0
 .00000033,-0.00000196,-0.00001124,-0.00001501,-0.00000711,0.00000552,0
 .00000560,0.00000017,-0.00000725,-0.00000924,-0.00000166,-0.00001136,-
 0.00002739,-0.00000839,-0.00000592,0.00000142,0.00000966,0.00000059,-0
 .00000231,-0.00000217,0.00000144,0.00000167,-0.00000256,0.00000030,-0.
 00000010,0.00000050,0.00000011,-0.00000022,-0.00000119,-0.00000117,-0.
 00000087,-0.00000043,0.00000043,-0.00000010,-0.00000037,-0.00000074,-0
 .00000021,-0.00000011,0.00000039,-0.00000064,0.00000190,-0.00000214,0.
 00000124,-0.00000101,-0.00000067,-0.00000099,0.00000043,-0.00000168,-0
 .00000085,0.00000039,0.00001938,0.00002851,0.00000420,0.00000028,0.000
 00007,0.00000019,-0.00000095,0.00000062,0.00000193,0.00000020,-0.00000
 005,0.00000013,0.00000128,0.00000193,0.00000075,0.00000006,-0.00000011
 ,0.00000003,-0.00000078,-0.00000086,-0.00000009,-0.00000015,-0.0000010
 3,-0.00000077,-0.00000007,-0.00000048,0.00000034,0.00001726,0.00004814
 ,0.00000769,-0.00034725,-0.00008712,-0.00017637,-0.00050972,-0.0002588
 7,0.00021482,0.00069736,0.00111205,0.00070848,0.02765689,-0.00966171,-
 0.00040529,0.00138289,0.00037046,-0.04801355,0.00065689,-0.00375582,-0
 .00416063,-0.00006639,0.00093966,0.00123568,-0.02602992,0.00770667,0.0
 0107955,0.00012283,0.00015235,-0.00114462,-0.00356930,0.00345579,0.050
 66104\\0.00000120,0.00000646,0.00000039,0.00000141,0.00000520,-0.00000
 015,0.00000101,0.00000384,0.00000109,-0.00000591,0.00000065,0.00000212
 ,0.00001115,0.00000680,-0.00000590,-0.00000689,-0.00000610,0.00000075,
 -0.00000807,-0.00000094,0.00000637,-0.00000183,-0.00000357,-0.00000022
 ,-0.00000117,-0.00000017,0.00000462,-0.00000318,-0.00000294,0.00000113
 ,-0.00000317,-0.00000648,0.00000036,-0.00000115,-0.00000422,0.00000148
 ,-0.00000688,-0.00000842,0.00000107,0.00000239,0.00000680,-0.00000109,
 0.00000153,0.00000668,0.00000054,0.00000235,0.00000399,-0.00000096,0.0
 0000119,0.00000406,-0.00000078,-0.00000080,0.00000406,0.00000079,0.,0.
 00000394,0.00000130,0.00000189,0.00000121,-0.00000090,-0.00000367,-0.0
 0000110,0.00000352,-0.00000051,-0.00000340,-0.00000069,-0.00000166,-0.
 00000586,0.00000084,0.00000141,0.00000886,0.00000836,-0.00000441,-0.00
 000623,0.00000265,-0.00001343,-0.00000698,0.00000888,-0.00000210,-0.00
 000920,-0.00000238,0.00000051,0.00000709,0.00000082,0.00000395,0.00000
 411,0.00000016,0.00000166,-0.00000543,0.00000349,0.00000448,0.00000246
 ,0.00000139,0.00000218,-0.00000213,-0.00001018,0.00000042,-0.00000333,
 -0.00000394,0.00000409,0.00000250,-0.00000166,0.00000332,-0.00000108,-
 0.00000404,0.00000462,-0.00000141,-0.00000408,0.00000380,0.00000088,-0
 .00000456,0.00000515,-0.00000106,-0.00000595,0.00000513,0.00000046,-0.
 00000461\\\@


 WE TEND TO MEET ANY NEW SITUATION BY REORGANIZING. IT CAN BE A
 WONDERFUL METHOD FOR CREATING THE ILLUSION OF PROGRESS WHILE PRODUCING
 CONFUSION, INEFFICIENCY, AND DEMORALIZATION.
     -- PETRONIUS ARBITER, 210 B.C.
 Job cpu time:       0 days  5 hours 50 minutes 20.9 seconds.
 File lengths (MBytes):  RWF=    934 Int=      0 D2E=      0 Chk=     28 Scr=      1
 Normal termination of Gaussian 09 at Tue Feb 19 11:52:29 2019.
WARNING: pbs_rusage is deprecated and values produced may not be accurate


=============================================================================
                                     Resource usage:
                                       CPU time:              17:56:12
   JobId:    5874801.r-man2            Elapsed time:          02:16:33
   Project:             q95            Requested time:        42:00:00
   Service Units:     18.21 
                                       Max physical memory:     1546MB
                                       Max virtual memory:      2822MB
                                       Requested memory:           0MB

                                       Number of cpus:               8

                                       Max jobfs disk use:       0.9GB
                                       Requested jobfs:         20.0GB
=============================================================================

