 Entering Gaussian System, Link 0=/apps/gaussian/g09e01/g09/g09
 AtFile(1): /home/507/hio507/Basis/6-31pGd.gbs
 Initial command:
 /apps/gaussian/g09e01/g09/l1.exe "/jobfs/local/930613.r-man2/Gau-2334.inp" -scrdir="/jobfs/local/930613.r-man2/"
 Entering Link 1 = /apps/gaussian/g09e01/g09/l1.exe PID=      2335.
  
 Copyright (c) 1988,1990,1992,1993,1995,1998,2003,2009,2015,
            Gaussian, Inc.  All Rights Reserved.
  
 This is part of the Gaussian(R) 09 program.  It is based on
 the Gaussian(R) 03 system (copyright 2003, Gaussian, Inc.),
 the Gaussian(R) 98 system (copyright 1998, Gaussian, Inc.),
 the Gaussian(R) 94 system (copyright 1995, Gaussian, Inc.),
 the Gaussian 92(TM) system (copyright 1992, Gaussian, Inc.),
 the Gaussian 90(TM) system (copyright 1990, Gaussian, Inc.),
 the Gaussian 88(TM) system (copyright 1988, Gaussian, Inc.),
 the Gaussian 86(TM) system (copyright 1986, Carnegie Mellon
 University), and the Gaussian 82(TM) system (copyright 1983,
 Carnegie Mellon University). Gaussian is a federally registered
 trademark of Gaussian, Inc.
  
 This software contains proprietary and confidential information,
 including trade secrets, belonging to Gaussian, Inc.
  
 This software is provided under written license and may be
 used, copied, transmitted, or stored only in accord with that
 written license.
  
 The following legend is applicable only to US Government
 contracts under FAR:
  
                    RESTRICTED RIGHTS LEGEND
  
 Use, reproduction and disclosure by the US Government is
 subject to restrictions as set forth in subparagraphs (a)
 and (c) of the Commercial Computer Software - Restricted
 Rights clause in FAR 52.227-19.
  
 Gaussian, Inc.
 340 Quinnipiac St., Bldg. 40, Wallingford CT 06492
  
  
 ---------------------------------------------------------------
 Warning -- This program may not be used in any manner that
 competes with the business of Gaussian, Inc. or will provide
 assistance to any competitor of Gaussian, Inc.  The licensee
 of this program is prohibited from giving any competitor of
 Gaussian, Inc. access to this program.  By using this program,
 the user acknowledges that Gaussian, Inc. is engaged in the
 business of creating and licensing software in the field of
 computational chemistry and represents and warrants to the
 licensee that it is not a competitor of Gaussian, Inc. and that
 it will not use this program in any manner prohibited above.
 ---------------------------------------------------------------
  

 Cite this work as:
 Gaussian 09, Revision E.01,
 M. J. Frisch, G. W. Trucks, H. B. Schlegel, G. E. Scuseria, 
 M. A. Robb, J. R. Cheeseman, G. Scalmani, V. Barone, B. Mennucci, 
 G. A. Petersson, H. Nakatsuji, M. Caricato, X. Li, H. P. Hratchian, 
 A. F. Izmaylov, J. Bloino, G. Zheng, J. L. Sonnenberg, M. Hada, 
 M. Ehara, K. Toyota, R. Fukuda, J. Hasegawa, M. Ishida, T. Nakajima, 
 Y. Honda, O. Kitao, H. Nakai, T. Vreven, J. A. Montgomery, Jr., 
 J. E. Peralta, F. Ogliaro, M. Bearpark, J. J. Heyd, E. Brothers, 
 K. N. Kudin, V. N. Staroverov, T. Keith, R. Kobayashi, J. Normand, 
 K. Raghavachari, A. Rendell, J. C. Burant, S. S. Iyengar, J. Tomasi, 
 M. Cossi, N. Rega, J. M. Millam, M. Klene, J. E. Knox, J. B. Cross, 
 V. Bakken, C. Adamo, J. Jaramillo, R. Gomperts, R. E. Stratmann, 
 O. Yazyev, A. J. Austin, R. Cammi, C. Pomelli, J. W. Ochterski, 
 R. L. Martin, K. Morokuma, V. G. Zakrzewski, G. A. Voth, 
 P. Salvador, J. J. Dannenberg, S. Dapprich, A. D. Daniels, 
 O. Farkas, J. B. Foresman, J. V. Ortiz, J. Cioslowski, 
 and D. J. Fox, Gaussian, Inc., Wallingford CT, 2013.
 
 ******************************************
 Gaussian 09:  ES64L-G09RevE.01 30-Nov-2015
                 8-Oct-2018 
 ******************************************
 %chk=triclofen.M062X_6-31pGd_opt.chk
 ------------------------------------------------------------
 # M062X/Gen 6D SCF=Tight INT(grid=ultrafine) OPT IOP(2/17=4)
 ------------------------------------------------------------
 1/14=-1,18=20,19=15,26=4,38=1/1,3;
 2/9=110,12=2,17=4,18=5,40=1/2;
 3/5=7,8=2,11=2,16=1,25=1,30=1,71=1,74=-55,75=-5/1,2,3;
 4//1;
 5/5=2,32=2,38=5/2;
 6/7=2,8=2,9=2,10=2,28=1/1;
 7//1,2,3,16;
 1/14=-1,18=20,19=15,26=4/3(2);
 2/9=110,17=4/2;
 99//99;
 2/9=110,17=4/2;
 3/5=7,6=1,8=2,11=2,16=1,25=1,30=1,71=1,74=-55,75=-5,82=7/1,2,3;
 4/5=5,16=3,69=1/1;
 5/5=2,32=2,38=5/2;
 7//1,2,3,16;
 1/14=-1,18=20,19=15,26=4/3(-5);
 2/9=110,17=4/2;
 6/7=2,8=2,9=2,10=2,19=2,28=1/1;
 99/9=1/99;
 ---------------------------
 triclofen.M062X_6-31pGd_opt
 ---------------------------
 Symbolic Z-matrix:
 Charge =  0 Multiplicity = 1
 C                    -1.01842   2.55777  -0.07 
 C                    -0.75437   1.18233  -0.09883 
 C                     0.56638   0.72599  -0.03425 
 C                     1.65077   1.62134   0.05976 
 C                     1.36191   3.00764   0.08747 
 C                     0.041     3.46143   0.02298 
 Cl                   -2.05711   0.00642  -0.21522 
 Cl                   -2.66293   3.17592  -0.14845 
 N                     2.97601   1.06044   0.12179 
 C                     4.17159   1.72525   0.21011 
 O                     4.20115   2.94014   0.24388 
 N                     5.33337   0.9994    0.26046 
 H                     0.74881  -0.34155  -0.05787 
 H                     2.11457   3.77073   0.15799 
 H                    -0.15825   4.52569   0.04584 
 H                     3.02591   0.02995   0.09603 
 H                     5.23396  -0.02738   0.22993 
 C                     6.68381   1.49135   0.35303 
 C                     7.04023   2.86284   0.39865 
 C                     8.3825    3.24761   0.48879 
 C                     9.3922    2.28595   0.53532 
 C                     9.0614    0.93216   0.49135 
 C                     7.72364   0.5403    0.4011 
 Cl                    11.07215   2.77814   0.64854 
 H                     6.32582   3.66438   0.36719 
 H                     8.6366    4.29974   0.52241 
 H                     9.83967   0.18037   0.52699 
 H                     7.49727  -0.51829   0.36881 
 

 GradGradGradGradGradGradGradGradGradGradGradGradGradGradGradGradGradGrad
 Berny optimization.
 Initialization pass.
                           ----------------------------
                           !    Initial Parameters    !
                           ! (Angstroms and Degrees)  !
 --------------------------                            --------------------------
 ! Name  Definition              Value          Derivative Info.                !
 --------------------------------------------------------------------------------
 ! R1    R(1,2)                  1.4009         estimate D2E/DX2                !
 ! R2    R(1,6)                  1.3956         estimate D2E/DX2                !
 ! R3    R(1,8)                  1.7586         estimate D2E/DX2                !
 ! R4    R(2,3)                  1.3989         estimate D2E/DX2                !
 ! R5    R(2,7)                  1.7588         estimate D2E/DX2                !
 ! R6    R(3,4)                  1.4094         estimate D2E/DX2                !
 ! R7    R(3,13)                 1.0833         estimate D2E/DX2                !
 ! R8    R(4,5)                  1.4163         estimate D2E/DX2                !
 ! R9    R(4,9)                  1.4404         estimate D2E/DX2                !
 ! R10   R(5,6)                  1.3982         estimate D2E/DX2                !
 ! R11   R(5,14)                 1.0741         estimate D2E/DX2                !
 ! R12   R(6,15)                 1.083          estimate D2E/DX2                !
 ! R13   R(9,10)                 1.3708         estimate D2E/DX2                !
 ! R14   R(9,16)                 1.032          estimate D2E/DX2                !
 ! R15   R(10,11)                1.2157         estimate D2E/DX2                !
 ! R16   R(10,12)                1.3708         estimate D2E/DX2                !
 ! R17   R(12,17)                1.032          estimate D2E/DX2                !
 ! R18   R(12,18)                1.4402         estimate D2E/DX2                !
 ! R19   R(18,19)                1.4178         estimate D2E/DX2                !
 ! R20   R(18,23)                1.41           estimate D2E/DX2                !
 ! R21   R(19,20)                1.3992         estimate D2E/DX2                !
 ! R22   R(19,25)                1.0742         estimate D2E/DX2                !
 ! R23   R(20,21)                1.3952         estimate D2E/DX2                !
 ! R24   R(20,26)                1.0829         estimate D2E/DX2                !
 ! R25   R(21,22)                1.3943         estimate D2E/DX2                !
 ! R26   R(21,24)                1.7542         estimate D2E/DX2                !
 ! R27   R(22,23)                1.3969         estimate D2E/DX2                !
 ! R28   R(22,27)                1.0827         estimate D2E/DX2                !
 ! R29   R(23,28)                1.083          estimate D2E/DX2                !
 ! A1    A(2,1,6)              119.6074         estimate D2E/DX2                !
 ! A2    A(2,1,8)              121.3638         estimate D2E/DX2                !
 ! A3    A(6,1,8)              119.0288         estimate D2E/DX2                !
 ! A4    A(1,2,3)              119.8231         estimate D2E/DX2                !
 ! A5    A(1,2,7)              121.2115         estimate D2E/DX2                !
 ! A6    A(3,2,7)              118.9655         estimate D2E/DX2                !
 ! A7    A(2,3,4)              121.4853         estimate D2E/DX2                !
 ! A8    A(2,3,13)             118.6516         estimate D2E/DX2                !
 ! A9    A(4,3,13)             119.8631         estimate D2E/DX2                !
 ! A10   A(3,4,5)              117.7869         estimate D2E/DX2                !
 ! A11   A(3,4,9)              117.6058         estimate D2E/DX2                !
 ! A12   A(5,4,9)              124.6073         estimate D2E/DX2                !
 ! A13   A(4,5,6)              120.6271         estimate D2E/DX2                !
 ! A14   A(4,5,14)             123.623          estimate D2E/DX2                !
 ! A15   A(6,5,14)             115.7499         estimate D2E/DX2                !
 ! A16   A(1,6,5)              120.6702         estimate D2E/DX2                !
 ! A17   A(1,6,15)             119.8718         estimate D2E/DX2                !
 ! A18   A(5,6,15)             119.458          estimate D2E/DX2                !
 ! A19   A(4,9,10)             128.0506         estimate D2E/DX2                !
 ! A20   A(4,9,16)             115.61           estimate D2E/DX2                !
 ! A21   A(10,9,16)            116.3394         estimate D2E/DX2                !
 ! A22   A(9,10,11)            120.5063         estimate D2E/DX2                !
 ! A23   A(9,10,12)            118.9952         estimate D2E/DX2                !
 ! A24   A(11,10,12)           120.4985         estimate D2E/DX2                !
 ! A25   A(10,12,17)           116.3649         estimate D2E/DX2                !
 ! A26   A(10,12,18)           128.0368         estimate D2E/DX2                !
 ! A27   A(17,12,18)           115.5983         estimate D2E/DX2                !
 ! A28   A(12,18,19)           124.6256         estimate D2E/DX2                !
 ! A29   A(12,18,23)           117.5997         estimate D2E/DX2                !
 ! A30   A(19,18,23)           117.7747         estimate D2E/DX2                !
 ! A31   A(18,19,20)           120.6131         estimate D2E/DX2                !
 ! A32   A(18,19,25)           123.6208         estimate D2E/DX2                !
 ! A33   A(20,19,25)           115.7661         estimate D2E/DX2                !
 ! A34   A(19,20,21)           120.4549         estimate D2E/DX2                !
 ! A35   A(19,20,26)           119.6214         estimate D2E/DX2                !
 ! A36   A(21,20,26)           119.9237         estimate D2E/DX2                !
 ! A37   A(20,21,22)           119.7687         estimate D2E/DX2                !
 ! A38   A(20,21,24)           120.1214         estimate D2E/DX2                !
 ! A39   A(22,21,24)           120.1098         estimate D2E/DX2                !
 ! A40   A(21,22,23)           120.1069         estimate D2E/DX2                !
 ! A41   A(21,22,27)           120.1737         estimate D2E/DX2                !
 ! A42   A(23,22,27)           119.7194         estimate D2E/DX2                !
 ! A43   A(18,23,22)           121.2817         estimate D2E/DX2                !
 ! A44   A(18,23,28)           120.2744         estimate D2E/DX2                !
 ! A45   A(22,23,28)           118.4439         estimate D2E/DX2                !
 ! D1    D(6,1,2,3)              0.0043         estimate D2E/DX2                !
 ! D2    D(6,1,2,7)            179.9982         estimate D2E/DX2                !
 ! D3    D(8,1,2,3)           -179.9872         estimate D2E/DX2                !
 ! D4    D(8,1,2,7)              0.0067         estimate D2E/DX2                !
 ! D5    D(2,1,6,5)              0.0043         estimate D2E/DX2                !
 ! D6    D(2,1,6,15)          -179.9849         estimate D2E/DX2                !
 ! D7    D(8,1,6,5)            179.996          estimate D2E/DX2                !
 ! D8    D(8,1,6,15)             0.0068         estimate D2E/DX2                !
 ! D9    D(1,2,3,4)             -0.0139         estimate D2E/DX2                !
 ! D10   D(1,2,3,13)           179.9934         estimate D2E/DX2                !
 ! D11   D(7,2,3,4)            179.992          estimate D2E/DX2                !
 ! D12   D(7,2,3,13)            -0.0006         estimate D2E/DX2                !
 ! D13   D(2,3,4,5)              0.0144         estimate D2E/DX2                !
 ! D14   D(2,3,4,9)            179.9752         estimate D2E/DX2                !
 ! D15   D(13,3,4,5)          -179.993          estimate D2E/DX2                !
 ! D16   D(13,3,4,9)            -0.0323         estimate D2E/DX2                !
 ! D17   D(3,4,5,6)             -0.0056         estimate D2E/DX2                !
 ! D18   D(3,4,5,14)           179.9572         estimate D2E/DX2                !
 ! D19   D(9,4,5,6)           -179.9634         estimate D2E/DX2                !
 ! D20   D(9,4,5,14)            -0.0006         estimate D2E/DX2                !
 ! D21   D(3,4,9,10)           179.7334         estimate D2E/DX2                !
 ! D22   D(3,4,9,16)            -0.2544         estimate D2E/DX2                !
 ! D23   D(5,4,9,10)            -0.3088         estimate D2E/DX2                !
 ! D24   D(5,4,9,16)           179.7035         estimate D2E/DX2                !
 ! D25   D(4,5,6,1)             -0.0036         estimate D2E/DX2                !
 ! D26   D(4,5,6,15)           179.9856         estimate D2E/DX2                !
 ! D27   D(14,5,6,1)          -179.9692         estimate D2E/DX2                !
 ! D28   D(14,5,6,15)            0.0201         estimate D2E/DX2                !
 ! D29   D(4,9,10,11)           -0.0838         estimate D2E/DX2                !
 ! D30   D(4,9,10,12)          179.8836         estimate D2E/DX2                !
 ! D31   D(16,9,10,11)         179.9038         estimate D2E/DX2                !
 ! D32   D(16,9,10,12)          -0.1288         estimate D2E/DX2                !
 ! D33   D(9,10,12,17)          -0.1196         estimate D2E/DX2                !
 ! D34   D(9,10,12,18)         179.9751         estimate D2E/DX2                !
 ! D35   D(11,10,12,17)        179.8478         estimate D2E/DX2                !
 ! D36   D(11,10,12,18)         -0.0575         estimate D2E/DX2                !
 ! D37   D(10,12,18,19)         -0.5126         estimate D2E/DX2                !
 ! D38   D(10,12,18,23)        179.511          estimate D2E/DX2                !
 ! D39   D(17,12,18,19)        179.5815         estimate D2E/DX2                !
 ! D40   D(17,12,18,23)         -0.3949         estimate D2E/DX2                !
 ! D41   D(12,18,19,20)       -179.9956         estimate D2E/DX2                !
 ! D42   D(12,18,19,25)         -0.0388         estimate D2E/DX2                !
 ! D43   D(23,18,19,20)         -0.0193         estimate D2E/DX2                !
 ! D44   D(23,18,19,25)        179.9376         estimate D2E/DX2                !
 ! D45   D(12,18,23,22)       -179.9897         estimate D2E/DX2                !
 ! D46   D(12,18,23,28)         -0.016          estimate D2E/DX2                !
 ! D47   D(19,18,23,22)          0.0322         estimate D2E/DX2                !
 ! D48   D(19,18,23,28)       -179.9941         estimate D2E/DX2                !
 ! D49   D(18,19,20,21)         -0.0046         estimate D2E/DX2                !
 ! D50   D(18,19,20,26)        179.9894         estimate D2E/DX2                !
 ! D51   D(25,19,20,21)       -179.9647         estimate D2E/DX2                !
 ! D52   D(25,19,20,26)          0.0294         estimate D2E/DX2                !
 ! D53   D(19,20,21,22)          0.0163         estimate D2E/DX2                !
 ! D54   D(19,20,21,24)       -179.9916         estimate D2E/DX2                !
 ! D55   D(26,20,21,22)       -179.9777         estimate D2E/DX2                !
 ! D56   D(26,20,21,24)          0.0144         estimate D2E/DX2                !
 ! D57   D(20,21,22,23)         -0.0035         estimate D2E/DX2                !
 ! D58   D(20,21,22,27)        179.9973         estimate D2E/DX2                !
 ! D59   D(24,21,22,23)       -179.9956         estimate D2E/DX2                !
 ! D60   D(24,21,22,27)          0.0053         estimate D2E/DX2                !
 ! D61   D(21,22,23,18)         -0.0213         estimate D2E/DX2                !
 ! D62   D(21,22,23,28)       -179.9954         estimate D2E/DX2                !
 ! D63   D(27,22,23,18)        179.9778         estimate D2E/DX2                !
 ! D64   D(27,22,23,28)          0.0037         estimate D2E/DX2                !
 --------------------------------------------------------------------------------
 Trust Radius=3.00D-01 FncErr=1.00D-07 GrdErr=1.00D-06
 Number of steps in this run=    148 maximum allowed number of steps=    168.
 GradGradGradGradGradGradGradGradGradGradGradGradGradGradGradGradGradGrad

                          Input orientation:                          
 ---------------------------------------------------------------------
 Center     Atomic      Atomic             Coordinates (Angstroms)
 Number     Number       Type             X           Y           Z
 ---------------------------------------------------------------------
      1          6           0       -1.018420    2.557770   -0.070000
      2          6           0       -0.754370    1.182330   -0.098830
      3          6           0        0.566380    0.725990   -0.034250
      4          6           0        1.650770    1.621340    0.059760
      5          6           0        1.361910    3.007640    0.087470
      6          6           0        0.041000    3.461430    0.022980
      7         17           0       -2.057110    0.006420   -0.215220
      8         17           0       -2.662930    3.175920   -0.148450
      9          7           0        2.976010    1.060440    0.121790
     10          6           0        4.171590    1.725250    0.210110
     11          8           0        4.201150    2.940140    0.243880
     12          7           0        5.333370    0.999400    0.260460
     13          1           0        0.748810   -0.341550   -0.057870
     14          1           0        2.114570    3.770730    0.157990
     15          1           0       -0.158250    4.525690    0.045840
     16          1           0        3.025910    0.029950    0.096030
     17          1           0        5.233960   -0.027380    0.229930
     18          6           0        6.683810    1.491350    0.353030
     19          6           0        7.040230    2.862840    0.398650
     20          6           0        8.382500    3.247610    0.488790
     21          6           0        9.392200    2.285950    0.535320
     22          6           0        9.061400    0.932160    0.491350
     23          6           0        7.723640    0.540300    0.401100
     24         17           0       11.072150    2.778140    0.648540
     25          1           0        6.325820    3.664380    0.367190
     26          1           0        8.636600    4.299740    0.522410
     27          1           0        9.839670    0.180370    0.526990
     28          1           0        7.497270   -0.518290    0.368810
 ---------------------------------------------------------------------
                    Distance matrix (angstroms):
                    1          2          3          4          5
     1  C    0.000000
     2  C    1.400853   0.000000
     3  C    2.422455   1.398856   0.000000
     4  C    2.831663   2.450016   1.409394   0.000000
     5  C    2.427581   2.800912   2.419424   1.416346   0.000000
     6  C    1.395571   2.416971   2.786024   2.445126   1.398173
     7  Cl   2.758505   1.758818   2.726395   4.053635   4.559456
     8  Cl   1.758601   2.760338   4.055076   4.589998   4.035259
     9  N    4.270158   3.738886   2.437729   1.440388   2.529444
    10  C    5.263816   4.965409   3.749103   2.527437   3.090933
    11  O    5.242961   5.269205   4.265134   2.877077   2.844346
    12  N    6.548508   6.101076   4.783911   3.740138   4.453700
    13  H    3.395483   2.140897   1.083273   2.163401   3.407945
    14  H    3.367325   3.872543   3.421153   2.201054   1.074140
    15  H    2.150819   3.399168   3.869008   3.421695   2.148743
    16  H    4.772216   3.956825   2.559440   2.103532   3.411101
    17  H    6.772386   6.118135   4.735363   3.947972   4.921830
    18  C    7.787204   7.458297   6.177274   5.043253   5.540061
    19  C    8.078028   7.989205   6.831125   5.540979   5.688683
    20  C    9.442744   9.385791   8.229451   6.938661   7.036144
    21  C   10.431745  10.226094   8.980701   7.784446   8.075083
    22  C   10.225483   9.836678   8.513761   7.455111   7.984540
    23  C    8.984194   8.516970   7.172892   6.177776   6.830647
    24  Cl  12.113907  11.957079  10.726077   9.510376   9.729143
    25  H    7.439999   7.517103   6.478151   5.111225   5.014973
    26  H    9.828775   9.914358   8.843642   7.495978   7.401338
    27  H   11.131332  10.659703   9.306267   8.327832   8.947572
    28  H    9.064859   8.438030   7.053221   6.233385   7.081947
                    6          7          8          9         10
     6  C    0.000000
     7  Cl   4.049185   0.000000
     8  Cl   2.724361   3.227570   0.000000
     9  N    3.793257   5.153332   6.028759   0.000000
    10  C    4.484541   6.475491   6.995975   1.370833   0.000000
    11  O    4.198498   6.926998   6.879325   2.247031   1.215719
    12  N    5.841846   7.472046   8.297304   2.362224   1.370812
    13  H    3.869133   2.831789   4.901099   2.637854   4.007356
    14  H    2.100854   5.631361   4.824128   2.844127   2.901385
    15  H    1.082992   4.908933   2.851850   4.673041   5.159163
    16  H    4.548635   5.092595   6.505367   1.032019   2.049302
    17  H    6.259509   7.304725   8.530251   2.508662   2.049569
    18  C    6.936647   8.884346   9.510563   3.739911   2.527130
    19  C    7.034818   9.554976   9.723613   4.454569   3.091723
    20  C    8.357232  10.953830  11.064029   5.843675   4.486313
    21  C    9.438707  11.698131  12.107260   6.545256   5.260695
    22  C    9.379989  11.179334  11.954234   6.097951   4.961686
    23  C    8.227936   9.814680  10.729834   4.784198   3.749352
    24  Cl  11.069981  13.446411  13.763933   8.293096   6.994178
    25  H    6.297510   9.164791   9.016768   4.249935   2.902689
    26  H    8.650811  11.546953  11.375078   6.534205   5.163511
    27  H   10.345691  11.921179  12.874181   6.931705   5.883383
    28  H    8.458944   9.586584  10.823327   4.795331   4.014823
                   11         12         13         14         15
    11  O    0.000000
    12  N    2.246924   0.000000
    13  H    4.772755   4.787240   0.000000
    14  H    2.247459   4.248699   4.338518   0.000000
    15  H    4.643012   6.529829   4.952125   2.397551   0.000000
    16  H    3.142014   2.508235   2.312333   3.850690   5.509362
    17  H    3.142144   1.032033   4.505342   4.915426   7.059764
    18  C    2.876544   1.440233   6.225158   5.109948   7.491019
    19  C    2.844346   2.530786   7.075203   5.014410   7.396463
    20  C    4.199786   3.795231   8.453054   6.298415   8.647202
    21  C    5.240220   4.266715   9.053387   7.437126   9.821768
    22  C    5.264528   3.735778   8.427522   7.511794   9.905245
    23  C    4.265195   2.438020   7.045322   6.477380   8.839329
    24  Cl   6.884812   6.020641  10.807536   9.025747  11.381523
    25  H    2.248100   2.845781   6.879767   4.217784   6.548915
    26  H    4.647506   4.676771   9.170361   6.553589   8.810650
    27  H    6.284058   4.587874   9.124593   8.526665  10.911999
    28  H    4.779200   2.645295   6.764245   6.885753   9.173496
                   16         17         18         19         20
    16  H    0.000000
    17  H    2.212849   0.000000
    18  C    3.947401   2.103274   0.000000
    19  C    4.922561   3.412396   1.417780   0.000000
    20  C    6.261042   4.550371   2.447126   1.399236   0.000000
    21  C    6.768468   4.768199   2.828426   2.425540   1.395152
    22  C    6.115341   3.954536   2.446377   2.796649   2.412928
    23  C    4.735208   2.559310   1.409983   2.421001   2.787708
    24  Cl   8.520551   6.490812   4.582650   4.040544   2.734984
    25  H    4.916504   3.852284   2.202366   1.074168   2.102003
    26  H    7.063480   5.512483   3.424782   2.151371   1.082901
    27  H    6.829032   4.619953   3.421751   3.879302   3.395992
    28  H    4.513096   2.320098   2.168091   3.412011   3.870404
                   21         22         23         24         25
    21  C    0.000000
    22  C    1.394313   0.000000
    23  C    2.418554   1.396890   0.000000
    24  Cl   1.754224   2.734130   4.035056   0.000000
    25  H    3.366159   3.868312   3.422707   4.836551   0.000000
    26  H    2.150918   3.394409   3.870607   2.874557   2.401558
    27  H    2.152618   1.082665   2.150112   2.877879   4.950859
    28  H    3.388546   2.136662   1.083005   4.870777   4.343619
                   26         27         28
    26  H    0.000000
    27  H    4.291458   0.000000
    28  H    4.953290   2.449487   0.000000
 Stoichiometry    C13H9Cl3N2O
 Framework group  C1[X(C13H9Cl3N2O)]
 Deg. of freedom    78
 Full point group                 C1      NOp   1
 Largest Abelian subgroup         C1      NOp   1
 Largest concise Abelian subgroup C1      NOp   1
                         Standard orientation:                         
 ---------------------------------------------------------------------
 Center     Atomic      Atomic             Coordinates (Angstroms)
 Number     Number       Type             X           Y           Z
 ---------------------------------------------------------------------
      1          6           0        4.554183   -0.797035    0.003390
      2          6           0        4.343177    0.587822   -0.002508
      3          6           0        3.038637    1.092769   -0.003393
      4          6           0        1.918320    0.237632    0.001247
      5          6           0        2.153742   -1.158999    0.007191
      6          6           0        3.458530   -1.661407    0.008247
      7         17           0        5.692978    1.715404   -0.008720
      8         17           0        6.176553   -1.475704    0.005051
      9          7           0        0.613305    0.847265    0.000478
     10          6           0       -0.609093    0.226840   -0.000684
     11          8           0       -0.685350   -0.986483   -0.002725
     12          7           0       -1.744278    0.995265    0.001171
     13          1           0        2.897395    2.166785   -0.007882
     14          1           0        1.370613   -1.894162    0.011707
     15          1           0        3.616716   -2.732774    0.013063
     16          1           0        0.603028    1.879232    0.000654
     17          1           0       -1.605466    2.017912    0.005312
     18          6           0       -3.115040    0.553358   -0.000070
     19          6           0       -3.523823   -0.804141   -0.013994
     20          6           0       -4.882342   -1.139235   -0.014178
     21          6           0       -5.856912   -0.140998   -0.000545
     22          6           0       -5.474436    1.199762    0.013016
     23          6           0       -4.120148    1.542114    0.013022
     24         17           0       -7.557614   -0.571014   -0.000671
     25          1           0       -2.838818   -1.631469   -0.025570
     26          1           0       -5.176578   -2.181339   -0.025092
     27          1           0       -6.225226    1.979739    0.023595
     28          1           0       -3.853415    2.591703    0.023803
 ---------------------------------------------------------------------
 Rotational constants (GHZ):      1.1995403      0.0722442      0.0681406
 General basis read from cards:  (6D, 7F)
 There are   391 symmetry adapted cartesian basis functions of A   symmetry.
 There are   391 symmetry adapted basis functions of A   symmetry.
   391 basis functions,   716 primitive gaussians,   391 cartesian basis functions
    80 alpha electrons       80 beta electrons
       nuclear repulsion energy      1554.8751326906 Hartrees.
 NAtoms=   28 NActive=   28 NUniq=   28 SFac= 1.00D+00 NAtFMM=   60 NAOKFM=F Big=F
 Integral buffers will be    131072 words long.
 Raffenetti 2 integral format.
 Two-electron integral symmetry is turned on.
 One-electron integrals computed using PRISM.
 NBasis=   391 RedAO= T EigKep=  1.06D-06  NBF=   391
 NBsUse=   391 1.00D-06 EigRej= -1.00D+00 NBFU=   391
 ExpMin= 4.38D-02 ExpMax= 2.52D+04 ExpMxC= 3.78D+03 IAcc=3 IRadAn=         5 AccDes= 0.00D+00
 Harris functional with IExCor= 1009 and IRadAn=       5 diagonalized for initial guess.
 HarFok:  IExCor= 1009 AccDes= 0.00D+00 IRadAn=         5 IDoV= 1 UseB2=F ITyADJ=14
 ICtDFT=  3500011 ScaDFX=  1.000000  1.000000  1.000000  1.000000
 FoFCou: FMM=F IPFlag=           0 FMFlag=      100000 FMFlg1=           0
         NFxFlg=           0 DoJE=T BraDBF=F KetDBF=T FulRan=T
         wScrn=  0.000000 ICntrl=     500 IOpCl=  0 I1Cent=   200000004 NGrid=           0
         NMat0=    1 NMatS0=      1 NMatT0=    0 NMatD0=    1 NMtDS0=    0 NMtDT0=    0
 Petite list used in FoFCou.
 Requested convergence on RMS density matrix=1.00D-08 within 128 cycles.
 Requested convergence on MAX density matrix=1.00D-06.
 Requested convergence on             energy=1.00D-06.
 No special actions if energy rises.
 SCF Done:  E(RM062X) =  -2065.78824466     A.U. after   16 cycles
            NFock= 16  Conv=0.60D-08     -V/T= 2.0049

 **********************************************************************

            Population analysis using the SCF density.

 **********************************************************************

 Orbital symmetries:
       Occupied  (A) (A) (A) (A) (A) (A) (A) (A) (A) (A) (A) (A)
                 (A) (A) (A) (A) (A) (A) (A) (A) (A) (A) (A) (A)
                 (A) (A) (A) (A) (A) (A) (A) (A) (A) (A) (A) (A)
                 (A) (A) (A) (A) (A) (A) (A) (A) (A) (A) (A) (A)
                 (A) (A) (A) (A) (A) (A) (A) (A) (A) (A) (A) (A)
                 (A) (A) (A) (A) (A) (A) (A) (A) (A) (A) (A) (A)
                 (A) (A) (A) (A) (A) (A) (A) (A)
       Virtual   (A) (A) (A) (A) (A) (A) (A) (A) (A) (A) (A) (A)
                 (A) (A) (A) (A) (A) (A) (A) (A) (A) (A) (A) (A)
                 (A) (A) (A) (A) (A) (A) (A) (A) (A) (A) (A) (A)
                 (A) (A) (A) (A) (A) (A) (A) (A) (A) (A) (A) (A)
                 (A) (A) (A) (A) (A) (A) (A) (A) (A) (A) (A) (A)
                 (A) (A) (A) (A) (A) (A) (A) (A) (A) (A) (A) (A)
                 (A) (A) (A) (A) (A) (A) (A) (A) (A) (A) (A) (A)
                 (A) (A) (A) (A) (A) (A) (A) (A) (A) (A) (A) (A)
                 (A) (A) (A) (A) (A) (A) (A) (A) (A) (A) (A) (A)
                 (A) (A) (A) (A) (A) (A) (A) (A) (A) (A) (A) (A)
                 (A) (A) (A) (A) (A) (A) (A) (A) (A) (A) (A) (A)
                 (A) (A) (A) (A) (A) (A) (A) (A) (A) (A) (A) (A)
                 (A) (A) (A) (A) (A) (A) (A) (A) (A) (A) (A) (A)
                 (A) (A) (A) (A) (A) (A) (A) (A) (A) (A) (A) (A)
                 (A) (A) (A) (A) (A) (A) (A) (A) (A) (A) (A) (A)
                 (A) (A) (A) (A) (A) (A) (A) (A) (A) (A) (A) (A)
                 (A) (A) (A) (A) (A) (A) (A) (A) (A) (A) (A) (A)
                 (A) (A) (A) (A) (A) (A) (A) (A) (A) (A) (A) (A)
                 (A) (A) (A) (A) (A) (A) (A) (A) (A) (A) (A) (A)
                 (A) (A) (A) (A) (A) (A) (A) (A) (A) (A) (A) (A)
                 (A) (A) (A) (A) (A) (A) (A) (A) (A) (A) (A) (A)
                 (A) (A) (A) (A) (A) (A) (A) (A) (A) (A) (A) (A)
                 (A) (A) (A) (A) (A) (A) (A) (A) (A) (A) (A) (A)
                 (A) (A) (A) (A) (A) (A) (A) (A) (A) (A) (A) (A)
                 (A) (A) (A) (A) (A) (A) (A) (A) (A) (A) (A) (A)
                 (A) (A) (A) (A) (A) (A) (A) (A) (A) (A) (A)
 The electronic state is 1-A.
 Alpha  occ. eigenvalues -- -102.68794-102.68130-102.67589 -19.62744 -14.83695
 Alpha  occ. eigenvalues --  -14.83391 -10.71291 -10.64658 -10.64339 -10.63711
 Alpha  occ. eigenvalues --  -10.63470 -10.62491 -10.59492 -10.58695 -10.58484
 Alpha  occ. eigenvalues --  -10.58253 -10.57853 -10.57797 -10.57346  -9.83384
 Alpha  occ. eigenvalues --   -9.82732  -9.82233  -7.55805  -7.55149  -7.55116
 Alpha  occ. eigenvalues --   -7.55095  -7.54637  -7.54465  -7.54445  -7.53970
 Alpha  occ. eigenvalues --   -7.53962  -1.20669  -1.07996  -1.06416  -1.02431
 Alpha  occ. eigenvalues --   -1.00038  -0.96280  -0.94899  -0.93683  -0.86904
 Alpha  occ. eigenvalues --   -0.86683  -0.84963  -0.82876  -0.74912  -0.73314
 Alpha  occ. eigenvalues --   -0.72678  -0.70080  -0.67897  -0.65997  -0.63917
 Alpha  occ. eigenvalues --   -0.61490  -0.57540  -0.56623  -0.56287  -0.55908
 Alpha  occ. eigenvalues --   -0.54471  -0.53474  -0.52477  -0.52185  -0.51295
 Alpha  occ. eigenvalues --   -0.50292  -0.50276  -0.48158  -0.46372  -0.45369
 Alpha  occ. eigenvalues --   -0.45030  -0.44667  -0.43752  -0.42006  -0.41891
 Alpha  occ. eigenvalues --   -0.40033  -0.38296  -0.37980  -0.37557  -0.37109
 Alpha  occ. eigenvalues --   -0.36032  -0.32872  -0.32350  -0.29854  -0.28034
 Alpha virt. eigenvalues --   -0.02336  -0.01430  -0.00810  -0.00131   0.00900
 Alpha virt. eigenvalues --    0.00937   0.01301   0.01822   0.02377   0.03084
 Alpha virt. eigenvalues --    0.03555   0.03809   0.04303   0.04782   0.05384
 Alpha virt. eigenvalues --    0.06036   0.06357   0.06920   0.07472   0.07570
 Alpha virt. eigenvalues --    0.07804   0.08070   0.08528   0.08888   0.09142
 Alpha virt. eigenvalues --    0.09167   0.09750   0.10091   0.10380   0.11083
 Alpha virt. eigenvalues --    0.11595   0.11870   0.12794   0.13062   0.13395
 Alpha virt. eigenvalues --    0.13547   0.13625   0.13837   0.14040   0.14390
 Alpha virt. eigenvalues --    0.14453   0.15458   0.15480   0.16049   0.16277
 Alpha virt. eigenvalues --    0.16466   0.17076   0.17428   0.17962   0.18057
 Alpha virt. eigenvalues --    0.18111   0.18659   0.18901   0.19822   0.20607
 Alpha virt. eigenvalues --    0.20696   0.20807   0.21108   0.21491   0.21826
 Alpha virt. eigenvalues --    0.22240   0.22486   0.22827   0.23010   0.23342
 Alpha virt. eigenvalues --    0.23481   0.23771   0.24465   0.24882   0.24948
 Alpha virt. eigenvalues --    0.25392   0.26243   0.26530   0.26631   0.27544
 Alpha virt. eigenvalues --    0.27571   0.27891   0.28336   0.28757   0.29027
 Alpha virt. eigenvalues --    0.29484   0.29817   0.30453   0.31558   0.31678
 Alpha virt. eigenvalues --    0.31791   0.32772   0.33071   0.34229   0.34561
 Alpha virt. eigenvalues --    0.34823   0.35169   0.36619   0.37041   0.37371
 Alpha virt. eigenvalues --    0.38592   0.39182   0.39368   0.41255   0.41586
 Alpha virt. eigenvalues --    0.41881   0.43571   0.45507   0.46564   0.50697
 Alpha virt. eigenvalues --    0.51937   0.53955   0.55137   0.57039   0.58004
 Alpha virt. eigenvalues --    0.59449   0.60747   0.62124   0.62808   0.65235
 Alpha virt. eigenvalues --    0.65248   0.65668   0.66997   0.67551   0.67826
 Alpha virt. eigenvalues --    0.68641   0.69177   0.70540   0.71437   0.72040
 Alpha virt. eigenvalues --    0.72336   0.73789   0.73883   0.74080   0.74451
 Alpha virt. eigenvalues --    0.75145   0.75697   0.76219   0.76946   0.78100
 Alpha virt. eigenvalues --    0.78728   0.79610   0.80033   0.80580   0.80711
 Alpha virt. eigenvalues --    0.81658   0.82897   0.83275   0.84386   0.84885
 Alpha virt. eigenvalues --    0.85058   0.86359   0.86704   0.87067   0.91350
 Alpha virt. eigenvalues --    0.91559   0.92827   0.93640   0.93844   0.94423
 Alpha virt. eigenvalues --    0.95480   0.96403   0.96561   0.97336   0.99130
 Alpha virt. eigenvalues --    0.99682   0.99766   1.00306   1.01389   1.01575
 Alpha virt. eigenvalues --    1.02165   1.03050   1.04324   1.04935   1.06544
 Alpha virt. eigenvalues --    1.06845   1.07275   1.08640   1.10217   1.11144
 Alpha virt. eigenvalues --    1.11966   1.12532   1.13790   1.15003   1.15438
 Alpha virt. eigenvalues --    1.16511   1.16628   1.18534   1.20506   1.21563
 Alpha virt. eigenvalues --    1.23151   1.23967   1.25387   1.26016   1.26768
 Alpha virt. eigenvalues --    1.29468   1.29758   1.30701   1.30731   1.31847
 Alpha virt. eigenvalues --    1.32960   1.35141   1.35373   1.37566   1.40125
 Alpha virt. eigenvalues --    1.41463   1.42993   1.43853   1.44637   1.45978
 Alpha virt. eigenvalues --    1.47367   1.47392   1.48148   1.49613   1.49980
 Alpha virt. eigenvalues --    1.51000   1.51131   1.53384   1.53812   1.56486
 Alpha virt. eigenvalues --    1.56695   1.57594   1.57886   1.58916   1.59318
 Alpha virt. eigenvalues --    1.61853   1.63954   1.73449   1.79018   1.80962
 Alpha virt. eigenvalues --    1.84099   1.85131   1.85298   1.86340   1.87622
 Alpha virt. eigenvalues --    1.89149   1.90759   1.92912   1.93938   1.94309
 Alpha virt. eigenvalues --    1.97411   1.98221   2.02526   2.02660   2.02767
 Alpha virt. eigenvalues --    2.04365   2.04910   2.08892   2.10978   2.12691
 Alpha virt. eigenvalues --    2.14369   2.14476   2.15737   2.16151   2.18530
 Alpha virt. eigenvalues --    2.21161   2.21701   2.21937   2.23726   2.25129
 Alpha virt. eigenvalues --    2.26164   2.28766   2.29959   2.31386   2.35279
 Alpha virt. eigenvalues --    2.37588   2.37995   2.39205   2.42714   2.49393
 Alpha virt. eigenvalues --    2.51970   2.54985   2.58581   2.61816   2.63110
 Alpha virt. eigenvalues --    2.64393   2.64949   2.66618   2.69045   2.72720
 Alpha virt. eigenvalues --    2.74191   2.75555   2.77453   2.77799   2.78356
 Alpha virt. eigenvalues --    2.79136   2.80981   2.86501   2.95060   2.96336
 Alpha virt. eigenvalues --    3.00784   3.05877   3.14662   3.27332   3.31971
 Alpha virt. eigenvalues --    3.36165   3.39579   4.15002   4.22660   4.26631
 Alpha virt. eigenvalues --    4.26887   4.29617   4.35967   4.36343   4.39954
 Alpha virt. eigenvalues --    4.41020   4.42736   4.43436   4.45450   4.46812
 Alpha virt. eigenvalues --    4.49775   4.50285   4.53622   4.67214   4.71651
 Alpha virt. eigenvalues --    4.76486
          Condensed to atoms (all electrons):
               1          2          3          4          5          6
     1  C    9.406882  -2.159125   0.797204  -1.054891   0.014683  -0.716764
     2  C   -2.159125  10.028920  -2.635482   0.494464  -0.428307   0.982557
     3  C    0.797204  -2.635482  18.248117  -0.927442  -4.678481  -3.244280
     4  C   -1.054891   0.494464  -0.927442  13.707827  -1.309631  -1.932987
     5  C    0.014683  -0.428307  -4.678481  -1.309631  13.888152  -3.573406
     6  C   -0.716764   0.982557  -3.244280  -1.932987  -3.573406  15.305808
     7  Cl  -0.291567   0.059236  -0.028972   0.047393  -0.010271   0.065295
     8  Cl   0.112673  -0.254248   0.103685  -0.066768   0.077304  -0.171582
     9  N    0.008600   0.057989   0.450961   0.179012  -0.385456  -0.002448
    10  C   -0.007840   0.023581  -1.085668  -1.311872   0.737963  -0.377126
    11  O    0.000752   0.014314  -0.120519  -0.356475   0.269432   0.158565
    12  N   -0.001346   0.032356  -0.074135  -0.341557   0.003297  -0.049042
    13  H    0.045101   0.131162  -0.065208   0.139530   0.077707  -0.031054
    14  H    0.008648  -0.027199   0.072695   0.075042   0.206431  -0.044702
    15  H    0.047366   0.059129   0.005092  -0.012026   0.074019   0.138967
    16  H    0.001299   0.052868  -0.048862  -0.057145  -0.015322   0.021074
    17  H   -0.000146  -0.001251   0.004858   0.002033   0.001520   0.001699
    18  C   -0.003122   0.005129  -0.282001  -1.127041   0.419362   0.169381
    19  C   -0.001268   0.012998   0.188512   0.485468  -0.397049  -0.188103
    20  C   -0.000310   0.000745   0.053966   0.188012  -0.173723  -0.049070
    21  C   -0.000085  -0.000137  -0.002341  -0.026235   0.002115  -0.000983
    22  C   -0.000010  -0.000831  -0.000669   0.011895   0.001062   0.000714
    23  C   -0.000455  -0.013058  -0.112547  -0.378657   0.230901   0.060376
    24  Cl   0.000000  -0.000003   0.000025  -0.000300   0.000014   0.000005
    25  H    0.000002   0.000007  -0.000590   0.001218   0.003903   0.000884
    26  H    0.000000  -0.000000   0.000002  -0.000131   0.000080   0.000008
    27  H    0.000000  -0.000000  -0.000001   0.000007   0.000008   0.000000
    28  H    0.000001   0.000000   0.000049  -0.000112  -0.000030  -0.000015
               7          8          9         10         11         12
     1  C   -0.291567   0.112673   0.008600  -0.007840   0.000752  -0.001346
     2  C    0.059236  -0.254248   0.057989   0.023581   0.014314   0.032356
     3  C   -0.028972   0.103685   0.450961  -1.085668  -0.120519  -0.074135
     4  C    0.047393  -0.066768   0.179012  -1.311872  -0.356475  -0.341557
     5  C   -0.010271   0.077304  -0.385456   0.737963   0.269432   0.003297
     6  C    0.065295  -0.171582  -0.002448  -0.377126   0.158565  -0.049042
     7  Cl  16.925941   0.032720  -0.004842  -0.025777   0.000009  -0.000517
     8  Cl   0.032720  16.928750   0.000741  -0.003771   0.000061   0.000173
     9  N   -0.004842   0.000741   7.809549   0.169572  -0.117929  -0.389476
    10  C   -0.025777  -0.003771   0.169572   7.658836   0.621358   0.211693
    11  O    0.000009   0.000061  -0.117929   0.621358   8.279896  -0.121616
    12  N   -0.000517   0.000173  -0.389476   0.211693  -0.121616   7.817794
    13  H   -0.005108   0.001088  -0.011287   0.010177   0.000070   0.001447
    14  H    0.000050   0.000561  -0.016430   0.025690  -0.002822   0.000807
    15  H    0.000534  -0.001055  -0.000790  -0.000190   0.000392   0.000040
    16  H   -0.000188   0.000036   0.208950   0.020253   0.010428   0.030209
    17  H    0.000007  -0.000000   0.029953   0.019453   0.010326   0.210087
    18  C   -0.000912  -0.000132  -0.339796  -1.090577  -0.357384   0.190670
    19  C   -0.000104  -0.000025   0.028817   0.702786   0.268041  -0.391494
    20  C   -0.000003  -0.000000  -0.028103  -0.029368   0.158801  -0.019979
    21  C   -0.000001  -0.000001  -0.003542  -0.255707   0.000379   0.011717
    22  C    0.000005   0.000000   0.006525   0.125256   0.011109   0.024521
    23  C    0.000056   0.000020  -0.074315  -1.186220  -0.105162   0.464270
    24  Cl   0.000000  -0.000000   0.000132  -0.006972   0.000119   0.000248
    25  H    0.000000   0.000000   0.001152   0.024816  -0.002535  -0.017888
    26  H    0.000000   0.000000   0.000036  -0.000846   0.000376  -0.000661
    27  H    0.000000   0.000000   0.000012   0.002461   0.000006   0.000576
    28  H    0.000000  -0.000000   0.001104   0.004134   0.000022  -0.012583
              13         14         15         16         17         18
     1  C    0.045101   0.008648   0.047366   0.001299  -0.000146  -0.003122
     2  C    0.131162  -0.027199   0.059129   0.052868  -0.001251   0.005129
     3  C   -0.065208   0.072695   0.005092  -0.048862   0.004858  -0.282001
     4  C    0.139530   0.075042  -0.012026  -0.057145   0.002033  -1.127041
     5  C    0.077707   0.206431   0.074019  -0.015322   0.001520   0.419362
     6  C   -0.031054  -0.044702   0.138967   0.021074   0.001699   0.169381
     7  Cl  -0.005108   0.000050   0.000534  -0.000188   0.000007  -0.000912
     8  Cl   0.001088   0.000561  -0.001055   0.000036  -0.000000  -0.000132
     9  N   -0.011287  -0.016430  -0.000790   0.208950   0.029953  -0.339796
    10  C    0.010177   0.025690  -0.000190   0.020253   0.019453  -1.090577
    11  O    0.000070  -0.002822   0.000392   0.010428   0.010326  -0.357384
    12  N    0.001447   0.000807   0.000040   0.030209   0.210087   0.190670
    13  H    0.484107  -0.000106   0.000010   0.006549   0.000004   0.000150
    14  H   -0.000106   0.425816  -0.004533  -0.000115   0.000002   0.001788
    15  H    0.000010  -0.004533   0.451677   0.000002  -0.000000  -0.000119
    16  H    0.006549  -0.000115   0.000002   0.349466   0.002690   0.003632
    17  H    0.000004   0.000002  -0.000000   0.002690   0.351591  -0.062503
    18  C    0.000150   0.001788  -0.000119   0.003632  -0.062503  13.099903
    19  C    0.000097   0.003134   0.000107  -0.000279  -0.002779  -1.490673
    20  C   -0.000009   0.000634   0.000011   0.001278   0.020217  -2.152722
    21  C    0.000001   0.000034  -0.000000   0.000001  -0.004132  -1.341056
    22  C   -0.000001  -0.000013   0.000000  -0.000453   0.032851   0.234862
    23  C   -0.000057  -0.000341   0.000001   0.004661  -0.030308   0.192047
    24  Cl   0.000000   0.000000   0.000000  -0.000000   0.000044  -0.041424
    25  H    0.000000  -0.000004   0.000000   0.000002  -0.000126   0.101911
    26  H    0.000000   0.000000  -0.000000  -0.000000   0.000002  -0.003126
    27  H    0.000000  -0.000000  -0.000000   0.000000  -0.000013  -0.011463
    28  H   -0.000000   0.000000   0.000000   0.000004   0.006766   0.169165
              19         20         21         22         23         24
     1  C   -0.001268  -0.000310  -0.000085  -0.000010  -0.000455   0.000000
     2  C    0.012998   0.000745  -0.000137  -0.000831  -0.013058  -0.000003
     3  C    0.188512   0.053966  -0.002341  -0.000669  -0.112547   0.000025
     4  C    0.485468   0.188012  -0.026235   0.011895  -0.378657  -0.000300
     5  C   -0.397049  -0.173723   0.002115   0.001062   0.230901   0.000014
     6  C   -0.188103  -0.049070  -0.000983   0.000714   0.060376   0.000005
     7  Cl  -0.000104  -0.000003  -0.000001   0.000005   0.000056   0.000000
     8  Cl  -0.000025  -0.000000  -0.000001   0.000000   0.000020  -0.000000
     9  N    0.028817  -0.028103  -0.003542   0.006525  -0.074315   0.000132
    10  C    0.702786  -0.029368  -0.255707   0.125256  -1.186220  -0.006972
    11  O    0.268041   0.158801   0.000379   0.011109  -0.105162   0.000119
    12  N   -0.391494  -0.019979   0.011717   0.024521   0.464270   0.000248
    13  H    0.000097  -0.000009   0.000001  -0.000001  -0.000057   0.000000
    14  H    0.003134   0.000634   0.000034  -0.000013  -0.000341   0.000000
    15  H    0.000107   0.000011  -0.000000   0.000000   0.000001   0.000000
    16  H   -0.000279   0.001278   0.000001  -0.000453   0.004661  -0.000000
    17  H   -0.002779   0.020217  -0.004132   0.032851  -0.030308   0.000044
    18  C   -1.490673  -2.152722  -1.341056   0.234862   0.192047  -0.041424
    19  C   13.436532  -3.093995  -0.270333   0.084674  -4.645040   0.105443
    20  C   -3.093995  13.955378   0.171865  -0.138845  -2.362994  -0.108526
    21  C   -0.270333   0.171865   6.355951  -0.121230   1.249806  -0.153249
    22  C    0.084674  -0.138845  -0.121230   8.012935  -1.870849  -0.129387
    23  C   -4.645040  -2.362994   1.249806  -1.870849  15.252879   0.128526
    24  Cl   0.105443  -0.108526  -0.153249  -0.129387   0.128526  16.993555
    25  H    0.202228  -0.033675  -0.013867  -0.023589   0.058784   0.000807
    26  H    0.062687   0.143803   0.070138   0.055452  -0.018179   0.000287
    27  H   -0.022957   0.056775   0.076205   0.210289  -0.001590  -0.000868
    28  H    0.106411  -0.047741  -0.022027   0.028780   0.063149   0.001366
              25         26         27         28
     1  C    0.000002   0.000000   0.000000   0.000001
     2  C    0.000007  -0.000000  -0.000000   0.000000
     3  C   -0.000590   0.000002  -0.000001   0.000049
     4  C    0.001218  -0.000131   0.000007  -0.000112
     5  C    0.003903   0.000080   0.000008  -0.000030
     6  C    0.000884   0.000008   0.000000  -0.000015
     7  Cl   0.000000   0.000000   0.000000   0.000000
     8  Cl   0.000000   0.000000   0.000000  -0.000000
     9  N    0.001152   0.000036   0.000012   0.001104
    10  C    0.024816  -0.000846   0.002461   0.004134
    11  O   -0.002535   0.000376   0.000006   0.000022
    12  N   -0.017888  -0.000661   0.000576  -0.012583
    13  H    0.000000   0.000000   0.000000  -0.000000
    14  H   -0.000004   0.000000  -0.000000   0.000000
    15  H    0.000000  -0.000000  -0.000000   0.000000
    16  H    0.000002  -0.000000   0.000000   0.000004
    17  H   -0.000126   0.000002  -0.000013   0.006766
    18  C    0.101911  -0.003126  -0.011463   0.169165
    19  C    0.202228   0.062687  -0.022957   0.106411
    20  C   -0.033675   0.143803   0.056775  -0.047741
    21  C   -0.013867   0.070138   0.076205  -0.022027
    22  C   -0.023589   0.055452   0.210289   0.028780
    23  C    0.058784  -0.018179  -0.001590   0.063149
    24  Cl   0.000807   0.000287  -0.000868   0.001366
    25  H    0.430770  -0.004827   0.000010  -0.000112
    26  H   -0.004827   0.462601  -0.000142   0.000012
    27  H    0.000010  -0.000142   0.464944  -0.004661
    28  H   -0.000112   0.000012  -0.004661   0.507463
 Mulliken charges:
               1
     1  C   -0.206283
     2  C   -0.435813
     3  C   -0.617968
     4  C   -0.428631
     5  C    0.963723
     6  C   -0.523768
     7  Cl   0.237016
     8  Cl   0.239769
     9  N   -0.578690
    10  C    1.023907
    11  O   -0.620014
    12  N   -0.579612
    13  H    0.215629
    14  H    0.274934
    15  H    0.241366
    16  H    0.408961
    17  H    0.407156
    18  C   -0.283948
    19  C    0.816162
    20  C   -0.512422
    21  C    0.276717
    22  C   -0.555051
    23  C   -0.905704
    24  Cl   0.210160
    25  H    0.270719
    26  H    0.232428
    27  H    0.230401
    28  H    0.198856
 Sum of Mulliken charges =  -0.00000
 Mulliken charges with hydrogens summed into heavy atoms:
               1
     1  C   -0.206283
     2  C   -0.435813
     3  C   -0.402339
     4  C   -0.428631
     5  C    1.238657
     6  C   -0.282402
     7  Cl   0.237016
     8  Cl   0.239769
     9  N   -0.169729
    10  C    1.023907
    11  O   -0.620014
    12  N   -0.172456
    18  C   -0.283948
    19  C    1.086881
    20  C   -0.279994
    21  C    0.276717
    22  C   -0.324650
    23  C   -0.706849
    24  Cl   0.210160
 Electronic spatial extent (au):  <R**2>=          13599.4068
 Charge=             -0.0000 electrons
 Dipole moment (field-independent basis, Debye):
    X=             -0.9750    Y=              3.8004    Z=              0.0125  Tot=              3.9235
 Quadrupole moment (field-independent basis, Debye-Ang):
   XX=           -163.4791   YY=           -114.6909   ZZ=           -137.2950
   XY=             -6.9116   XZ=             -0.0136   YZ=              0.0845
 Traceless Quadrupole moment (field-independent basis, Debye-Ang):
   XX=            -24.9908   YY=             23.7975   ZZ=              1.1933
   XY=             -6.9116   XZ=             -0.0136   YZ=              0.0845
 Octapole moment (field-independent basis, Debye-Ang**2):
  XXX=             27.9948  YYY=             12.6065  ZZZ=             -0.0535  XYY=            -14.6047
  XXY=             20.7295  XXZ=              0.2306  XZZ=             12.2506  YZZ=             -1.1469
  YYZ=              0.1095  XYZ=             -0.6210
 Hexadecapole moment (field-independent basis, Debye-Ang**3):
 XXXX=         -18421.3167 YYYY=          -1084.1144 ZZZZ=           -156.1003 XXXY=           -133.5090
 XXXZ=             -1.9644 YYYX=            -17.8163 YYYZ=              0.3989 ZZZX=             -0.1082
 ZZZY=             -0.1287 XXYY=          -2838.4195 XXZZ=          -2957.0469 YYZZ=           -242.7575
 XXYZ=              2.2397 YYXZ=             -0.1239 ZZXY=             15.2937
 N-N= 1.554875132691D+03 E-N=-7.980749180801D+03  KE= 2.055751263336D+03
 Calling FoFJK, ICntrl=      2127 FMM=F ISym2X=0 I1Cent= 0 IOpClX= 0 NMat=1 NMatS=1 NMatT=0.
 ***** Axes restored to original set *****
 -------------------------------------------------------------------
 Center     Atomic                   Forces (Hartrees/Bohr)
 Number     Number              X              Y              Z
 -------------------------------------------------------------------
      1        6          -0.009116012    0.002066655   -0.000484004
      2        6           0.000335494   -0.000704608    0.000017979
      3        6           0.004120814    0.005441450    0.000398219
      4        6           0.006033894    0.005016980    0.000542423
      5        6          -0.004712882   -0.003934468   -0.000375123
      6        6           0.003122431   -0.015841076   -0.000329294
      7       17           0.010243761    0.008124901    0.000882705
      8       17           0.010273181   -0.004584268    0.000461237
      9        7          -0.016229136   -0.030741402   -0.001771260
     10        6           0.003269081    0.031924372    0.001120801
     11        8          -0.000230098    0.014726337    0.000332039
     12        7           0.009729145   -0.030158683   -0.000257674
     13        1          -0.000663115   -0.002511316   -0.000132186
     14        1           0.009530727   -0.002936421    0.000440856
     15        1          -0.000941529    0.000636998   -0.000037552
     16        1          -0.006105535    0.015866493    0.000071849
     17        1           0.006973919    0.015568583    0.000798857
     18        6          -0.005522279    0.005307128   -0.000225466
     19        6           0.004824655   -0.007153626    0.000116091
     20        6           0.000558583   -0.011371428   -0.000164653
     21        6          -0.002831407    0.000272157   -0.000157293
     22        6          -0.004121504    0.002322401   -0.000257023
     23        6          -0.002904586    0.009569776    0.000030285
     24       17          -0.005771470   -0.002080563   -0.000392466
     25        1          -0.009541714   -0.002327600   -0.000577408
     26        1          -0.000124629    0.001382565    0.000015309
     27        1           0.001333015   -0.001038772    0.000064692
     28        1          -0.001532804   -0.002842567   -0.000131941
 -------------------------------------------------------------------
 Cartesian Forces:  Max     0.031924372 RMS     0.008084041

 GradGradGradGradGradGradGradGradGradGradGradGradGradGradGradGradGradGrad
 Berny optimization.
 FormGI is forming the generalized inverse of G from B-inverse, IUseBI=4.
 GSVD:  received Info=                   1 from GESDD.
 Internal  Forces:  Max     0.031505570 RMS     0.006874343
 Search for a local minimum.
 Step number   1 out of a maximum of  148
 All quantities printed in internal units (Hartrees-Bohrs-Radians)
 Mixed Optimization -- RFO/linear search
 Second derivative matrix not updated -- first step.
 ITU=  0
     Eigenvalues ---    0.01158   0.01160   0.01620   0.01622   0.01677
     Eigenvalues ---    0.01684   0.01927   0.01938   0.01972   0.01986
     Eigenvalues ---    0.02031   0.02040   0.02069   0.02078   0.02078
     Eigenvalues ---    0.02078   0.02085   0.02090   0.02111   0.02116
     Eigenvalues ---    0.02124   0.02131   0.02145   0.02148   0.02159
     Eigenvalues ---    0.16000   0.16000   0.16000   0.16000   0.16000
     Eigenvalues ---    0.16000   0.16000   0.16000   0.16000   0.22000
     Eigenvalues ---    0.22000   0.22000   0.22372   0.22966   0.23476
     Eigenvalues ---    0.24000   0.24609   0.25000   0.25000   0.25000
     Eigenvalues ---    0.25000   0.25000   0.25000   0.25000   0.29649
     Eigenvalues ---    0.29669   0.30082   0.35602   0.35634   0.35635
     Eigenvalues ---    0.35646   0.35674   0.36708   0.36712   0.39532
     Eigenvalues ---    0.39553   0.40615   0.40753   0.41260   0.41313
     Eigenvalues ---    0.42472   0.42475   0.44113   0.44168   0.45023
     Eigenvalues ---    0.45462   0.45866   0.45942   0.46041   0.46421
     Eigenvalues ---    0.50817   0.50821   0.97306
 RFO step:  Lambda=-1.93355995D-02 EMin= 1.15752450D-02
 Linear search not attempted -- first point.
 Iteration  1 RMS(Cart)=  0.09728417 RMS(Int)=  0.00100240
 Iteration  2 RMS(Cart)=  0.00392289 RMS(Int)=  0.00003058
 Iteration  3 RMS(Cart)=  0.00000057 RMS(Int)=  0.00003058
 Variable       Old X    -DE/DX   Delta X   Delta X   Delta X     New X
                                 (Linear)    (Quad)   (Total)
    R1        2.64723  -0.00824   0.00000  -0.01708  -0.01712   2.63010
    R2        2.63725  -0.00455   0.00000  -0.00892  -0.00898   2.62827
    R3        3.32327  -0.01124   0.00000  -0.03556  -0.03556   3.28771
    R4        2.64345  -0.01047   0.00000  -0.02216  -0.02215   2.62131
    R5        3.32369  -0.01308   0.00000  -0.04141  -0.04141   3.28228
    R6        2.66337  -0.01225   0.00000  -0.02715  -0.02709   2.63628
    R7        2.04709   0.00237   0.00000   0.00630   0.00630   2.05339
    R8        2.67651  -0.01752   0.00000  -0.03929  -0.03925   2.63726
    R9        2.72194  -0.02962   0.00000  -0.07143  -0.07143   2.65050
   R10        2.64216  -0.00604   0.00000  -0.01239  -0.01240   2.62976
   R11        2.02983   0.00462   0.00000   0.01196   0.01196   2.04179
   R12        2.04656   0.00080   0.00000   0.00213   0.00213   2.04869
   R13        2.59050   0.00657   0.00000   0.01245   0.01245   2.60295
   R14        1.95023  -0.01614   0.00000  -0.03634  -0.03634   1.91389
   R15        2.29738   0.01472   0.00000   0.01483   0.01483   2.31221
   R16        2.59046   0.00433   0.00000   0.00821   0.00821   2.59867
   R17        1.95026  -0.01618   0.00000  -0.03645  -0.03645   1.91381
   R18        2.72165  -0.02686   0.00000  -0.06475  -0.06475   2.65689
   R19        2.67922  -0.01838   0.00000  -0.04180  -0.04175   2.63746
   R20        2.66448  -0.01098   0.00000  -0.02453  -0.02447   2.64001
   R21        2.64417  -0.00562   0.00000  -0.01182  -0.01184   2.63233
   R22        2.02988   0.00463   0.00000   0.01197   0.01197   2.04186
   R23        2.63646  -0.00489   0.00000  -0.00949  -0.00955   2.62690
   R24        2.04639   0.00131   0.00000   0.00350   0.00350   2.04988
   R25        2.63487  -0.00544   0.00000  -0.01055  -0.01060   2.62427
   R26        3.31500  -0.00614   0.00000  -0.01917  -0.01917   3.29584
   R27        2.63974  -0.00785   0.00000  -0.01628  -0.01627   2.62347
   R28        2.04594   0.00168   0.00000   0.00447   0.00447   2.05041
   R29        2.04658   0.00310   0.00000   0.00826   0.00826   2.05484
    A1        2.08754  -0.00299   0.00000  -0.00914  -0.00925   2.07830
    A2        2.11820   0.00037   0.00000   0.00039   0.00045   2.11864
    A3        2.07744   0.00262   0.00000   0.00875   0.00880   2.08624
    A4        2.09131   0.00118   0.00000   0.00505   0.00501   2.09632
    A5        2.11554   0.00079   0.00000   0.00261   0.00263   2.11817
    A6        2.07634  -0.00197   0.00000  -0.00766  -0.00764   2.06870
    A7        2.12032  -0.00327   0.00000  -0.01455  -0.01448   2.10584
    A8        2.07086   0.00053   0.00000   0.00111   0.00108   2.07194
    A9        2.09201   0.00274   0.00000   0.01344   0.01340   2.10541
   A10        2.05577   0.00869   0.00000   0.03128   0.03139   2.08716
   A11        2.05261  -0.00528   0.00000  -0.01910  -0.01916   2.03345
   A12        2.17481  -0.00341   0.00000  -0.01218  -0.01223   2.16258
   A13        2.10534  -0.00599   0.00000  -0.02462  -0.02458   2.08076
   A14        2.15763  -0.00598   0.00000  -0.03776  -0.03778   2.11984
   A15        2.02022   0.01198   0.00000   0.06239   0.06237   2.08259
   A16        2.10609   0.00238   0.00000   0.01198   0.01191   2.11800
   A17        2.09216  -0.00202   0.00000  -0.01061  -0.01058   2.08158
   A18        2.08494  -0.00036   0.00000  -0.00137  -0.00133   2.08360
   A19        2.23490  -0.00679   0.00000  -0.02837  -0.02837   2.20654
   A20        2.01778  -0.00181   0.00000  -0.01486  -0.01486   2.00292
   A21        2.03051   0.00860   0.00000   0.04323   0.04323   2.07373
   A22        2.10323   0.01507   0.00000   0.05596   0.05596   2.15920
   A23        2.07686  -0.03151   0.00000  -0.11698  -0.11698   1.95988
   A24        2.10309   0.01643   0.00000   0.06101   0.06101   2.16411
   A25        2.03095   0.00820   0.00000   0.04168   0.04168   2.07263
   A26        2.23466  -0.00577   0.00000  -0.02409  -0.02409   2.21057
   A27        2.01757  -0.00243   0.00000  -0.01759  -0.01759   1.99998
   A28        2.17513  -0.00415   0.00000  -0.01460  -0.01465   2.16048
   A29        2.05250  -0.00433   0.00000  -0.01525  -0.01531   2.03720
   A30        2.05556   0.00848   0.00000   0.02985   0.02996   2.08551
   A31        2.10510  -0.00454   0.00000  -0.01963  -0.01961   2.08549
   A32        2.15759  -0.00654   0.00000  -0.03932  -0.03934   2.11825
   A33        2.02050   0.01108   0.00000   0.05896   0.05894   2.07944
   A34        2.10234  -0.00018   0.00000   0.00121   0.00113   2.10346
   A35        2.08779  -0.00036   0.00000  -0.00315  -0.00311   2.08468
   A36        2.09306   0.00055   0.00000   0.00194   0.00198   2.09504
   A37        2.09036   0.00155   0.00000   0.00882   0.00872   2.09907
   A38        2.09651  -0.00016   0.00000  -0.00210  -0.00205   2.09446
   A39        2.09631  -0.00140   0.00000  -0.00672  -0.00666   2.08965
   A40        2.09626  -0.00384   0.00000  -0.01377  -0.01380   2.08246
   A41        2.09743   0.00174   0.00000   0.00587   0.00588   2.10331
   A42        2.08950   0.00210   0.00000   0.00790   0.00792   2.09742
   A43        2.11676  -0.00147   0.00000  -0.00648  -0.00640   2.11037
   A44        2.09918  -0.00019   0.00000  -0.00193  -0.00197   2.09722
   A45        2.06724   0.00166   0.00000   0.00840   0.00837   2.07560
    D1        0.00008  -0.00000   0.00000  -0.00010  -0.00010  -0.00003
    D2        3.14156   0.00000   0.00000   0.00005   0.00005  -3.14158
    D3       -3.14137  -0.00001   0.00000  -0.00023  -0.00023   3.14158
    D4        0.00012  -0.00000   0.00000  -0.00008  -0.00008   0.00004
    D5        0.00008  -0.00000   0.00000  -0.00007  -0.00007   0.00000
    D6       -3.14133  -0.00000   0.00000  -0.00015  -0.00015  -3.14148
    D7        3.14152   0.00000   0.00000   0.00005   0.00005   3.14157
    D8        0.00012  -0.00000   0.00000  -0.00002  -0.00003   0.00009
    D9       -0.00024   0.00001   0.00000   0.00029   0.00029   0.00005
   D10        3.14148   0.00001   0.00000   0.00020   0.00020  -3.14151
   D11        3.14145   0.00001   0.00000   0.00014   0.00014  -3.14159
   D12       -0.00001   0.00000   0.00000   0.00006   0.00006   0.00005
   D13        0.00025  -0.00001   0.00000  -0.00029  -0.00029  -0.00004
   D14        3.14116  -0.00001   0.00000  -0.00016  -0.00016   3.14100
   D15       -3.14147  -0.00001   0.00000  -0.00020  -0.00020   3.14151
   D16       -0.00056  -0.00000   0.00000  -0.00007  -0.00007  -0.00064
   D17       -0.00010   0.00000   0.00000   0.00011   0.00011   0.00001
   D18        3.14084   0.00002   0.00000   0.00059   0.00058   3.14142
   D19       -3.14095  -0.00000   0.00000  -0.00003  -0.00003  -3.14098
   D20       -0.00001   0.00002   0.00000   0.00045   0.00044   0.00043
   D21        3.13694   0.00000   0.00000   0.00008   0.00008   3.13702
   D22       -0.00444   0.00000   0.00000   0.00022   0.00022  -0.00422
   D23       -0.00539   0.00001   0.00000   0.00023   0.00023  -0.00516
   D24        3.13642   0.00001   0.00000   0.00038   0.00037   3.13679
   D25       -0.00006   0.00000   0.00000   0.00007   0.00007   0.00001
   D26        3.14134   0.00001   0.00000   0.00014   0.00015   3.14149
   D27       -3.14105  -0.00001   0.00000  -0.00034  -0.00035  -3.14141
   D28        0.00035  -0.00001   0.00000  -0.00027  -0.00028   0.00007
   D29       -0.00146  -0.00001   0.00000  -0.00031  -0.00031  -0.00177
   D30        3.13956   0.00002   0.00000   0.00049   0.00049   3.14005
   D31        3.13991  -0.00002   0.00000  -0.00046  -0.00046   3.13945
   D32       -0.00225   0.00001   0.00000   0.00034   0.00034  -0.00191
   D33       -0.00209  -0.00002   0.00000  -0.00038  -0.00038  -0.00247
   D34        3.14116  -0.00000   0.00000  -0.00013  -0.00013   3.14103
   D35        3.13894   0.00002   0.00000   0.00042   0.00042   3.13936
   D36       -0.00100   0.00003   0.00000   0.00067   0.00067  -0.00033
   D37       -0.00895   0.00001   0.00000   0.00020   0.00020  -0.00875
   D38        3.13306   0.00001   0.00000   0.00025   0.00025   3.13331
   D39        3.13429   0.00001   0.00000   0.00040   0.00039   3.13468
   D40       -0.00689   0.00001   0.00000   0.00044   0.00044  -0.00645
   D41       -3.14152   0.00001   0.00000   0.00022   0.00022  -3.14129
   D42       -0.00068   0.00004   0.00000   0.00090   0.00089   0.00021
   D43       -0.00034   0.00001   0.00000   0.00016   0.00016  -0.00017
   D44        3.14050   0.00003   0.00000   0.00084   0.00083   3.14133
   D45       -3.14141  -0.00002   0.00000  -0.00046  -0.00047   3.14130
   D46       -0.00028  -0.00001   0.00000  -0.00022  -0.00023  -0.00051
   D47        0.00056  -0.00001   0.00000  -0.00041  -0.00042   0.00015
   D48       -3.14149  -0.00001   0.00000  -0.00017  -0.00017   3.14152
   D49       -0.00008   0.00000   0.00000   0.00007   0.00008  -0.00000
   D50        3.14141   0.00001   0.00000   0.00018   0.00018   3.14159
   D51       -3.14098  -0.00002   0.00000  -0.00052  -0.00053  -3.14151
   D52        0.00051  -0.00001   0.00000  -0.00041  -0.00043   0.00009
   D53        0.00028  -0.00000   0.00000  -0.00007  -0.00008   0.00021
   D54       -3.14145   0.00000   0.00000   0.00003   0.00003  -3.14142
   D55       -3.14120  -0.00001   0.00000  -0.00018  -0.00018  -3.14139
   D56        0.00025  -0.00000   0.00000  -0.00008  -0.00008   0.00017
   D57       -0.00006  -0.00001   0.00000  -0.00017  -0.00017  -0.00023
   D58        3.14155   0.00000   0.00000   0.00008   0.00008  -3.14156
   D59       -3.14152  -0.00001   0.00000  -0.00027  -0.00027   3.14140
   D60        0.00009  -0.00000   0.00000  -0.00002  -0.00002   0.00007
   D61       -0.00037   0.00002   0.00000   0.00043   0.00043   0.00006
   D62       -3.14151   0.00001   0.00000   0.00019   0.00019  -3.14132
   D63        3.14121   0.00001   0.00000   0.00018   0.00018   3.14138
   D64        0.00007  -0.00000   0.00000  -0.00006  -0.00006   0.00000
         Item               Value     Threshold  Converged?
 Maximum Force            0.031506     0.000450     NO 
 RMS     Force            0.006874     0.000300     NO 
 Maximum Displacement     0.332401     0.001800     NO 
 RMS     Displacement     0.098891     0.001200     NO 
 Predicted change in Energy=-1.028800D-02
 GradGradGradGradGradGradGradGradGradGradGradGradGradGradGradGradGradGrad

                          Input orientation:                          
 ---------------------------------------------------------------------
 Center     Atomic      Atomic             Coordinates (Angstroms)
 Number     Number       Type             X           Y           Z
 ---------------------------------------------------------------------
      1          6           0       -0.962501    2.486047   -0.068826
      2          6           0       -0.645953    1.130954   -0.093394
      3          6           0        0.678630    0.724448   -0.027205
      4          6           0        1.706906    1.662756    0.064490
      5          6           0        1.397819    3.023442    0.089695
      6          6           0        0.065208    3.418696    0.022630
      7         17           0       -1.881905   -0.084156   -0.206406
      8         17           0       -2.612117    3.032879   -0.149966
      9          7           0        3.013187    1.155846    0.127106
     10          6           0        4.173275    1.893213    0.215290
     11          8           0        4.199845    3.116039    0.248581
     12          7           0        5.294449    1.098275    0.261124
     13          1           0        0.899950   -0.339176   -0.048196
     14          1           0        2.170012    3.775872    0.160246
     15          1           0       -0.177906    4.475023    0.042107
     16          1           0        3.077665    0.145406    0.102837
     17          1           0        5.180107    0.092479    0.230248
     18          6           0        6.628502    1.532961    0.351096
     19          6           0        7.005759    2.875885    0.397686
     20          6           0        8.356102    3.206121    0.486490
     21          6           0        9.325080    2.210298    0.528750
     22          6           0        8.956192    0.872281    0.482514
     23          6           0        7.610994    0.540708    0.394035
     24         17           0       11.011973    2.639001    0.640231
     25          1           0        6.271347    3.667805    0.366224
     26          1           0        8.648464    4.250105    0.522651
     27          1           0        9.709234    0.091802    0.515273
     28          1           0        7.329320   -0.508951    0.358493
 ---------------------------------------------------------------------
                    Distance matrix (angstroms):
                    1          2          3          4          5
     1  C    0.000000
     2  C    1.391791   0.000000
     3  C    2.407961   1.387136   0.000000
     4  C    2.796661   2.417372   1.395057   0.000000
     5  C    2.425908   2.791422   2.411695   1.395578   0.000000
     6  C    1.390821   2.398536   2.763647   2.404215   1.391609
     7  Cl   2.733162   1.736905   2.691150   4.000581   4.527850
     8  Cl   1.739782   2.736114   4.021559   4.536209   4.017103
     9  N    4.196894   3.665862   2.379091   1.402587   2.469561
    10  C    5.177680   4.888893   3.692880   2.481698   2.999392
    11  O    5.210322   5.247787   4.265528   2.891481   2.808055
    12  N    6.417492   5.951061   4.639900   3.637000   4.349642
    13  H    3.383937   2.133809   1.086608   2.161390   3.402071
    14  H    3.395403   3.871638   3.401551   2.165386   1.080468
    15  H    2.141009   3.379383   3.847763   3.385538   2.142956
    16  H    4.672367   3.856831   2.471350   2.045190   3.332439
    17  H    6.599261   5.926732   4.552908   3.815281   4.787067
    18  C    7.662117   7.299101   6.016460   4.931643   5.445174
    19  C    7.991419   7.863500   6.696401   5.446149   5.618329
    20  C    9.362865   9.256326   8.084934   6.838996   6.971981
    21  C   10.308611  10.048560   8.790788   7.651922   7.980943
    22  C   10.064228   9.622878   8.294559   7.304228   7.868342
    23  C    8.803601   8.292355   6.947581   6.018791   6.697771
    24  Cl  11.996423  11.777930  10.530383   9.373835   9.637574
    25  H    7.342641   7.382134   6.332190   4.994536   4.923713
    26  H    9.789402   9.823177   8.732174   7.422231   7.366411
    27  H   10.952602  10.424980   9.068976   8.167518   8.823562
    28  H    8.826489   8.154659   6.775080   6.034425   6.908890
                    6          7          8          9         10
     6  C    0.000000
     7  Cl   4.014184   0.000000
     8  Cl   2.710482   3.201921   0.000000
     9  N    3.717794   5.060708   5.936672   0.000000
    10  C    4.386392   6.383809   6.890123   1.377421   0.000000
    11  O    4.151853   6.887375   6.824118   2.294617   1.223568
    12  N    5.725924   7.288126   8.150183   2.285920   1.375158
    13  H    3.850118   2.797996   4.869879   2.594531   3.970848
    14  H    2.139326   5.608233   4.849436   2.752559   2.749636
    15  H    1.084117   4.873549   2.835852   4.605132   5.062461
    16  H    4.449243   4.974501   6.385533   1.012786   2.065874
    17  H    6.104836   7.077703   8.337223   2.415974   2.063148
    18  C    6.836719   8.680605   9.374960   3.641825   2.485230
    19  C    6.971841   9.387083   9.634735   4.355729   3.003644
    20  C    8.306580  10.776029  10.988035   5.734067   4.392416
    21  C    9.352092  11.463049  11.984739   6.411956   5.171064
    22  C    9.259877  10.902006  11.785330   5.960372   4.897960
    23  C    8.084531   9.532372  10.536548   4.646447   3.698531
    24  Cl  10.991861  13.205471  13.652669   8.151295   6.892355
    25  H    6.220634   8.993366   8.921072   4.121010   2.752066
    26  H    8.637914  11.410785  11.346134   6.441059   5.067221
    27  H   10.213626  11.614916  12.684958   6.791163   5.829401
    28  H    8.264777   9.238302  10.565759   4.631856   3.968818
                   11         12         13         14         15
    11  O    0.000000
    12  N    2.295579   0.000000
    13  H    4.787055   4.633958   0.000000
    14  H    2.136213   4.116043   4.311627   0.000000
    15  H    4.588483   6.434055   4.934211   2.452649   0.000000
    16  H    3.178866   2.418088   2.236084   3.742648   5.417381
    17  H    3.178548   1.012746   4.310870   4.757411   6.924623
    18  C    2.900866   1.405967   6.039921   4.994518   7.421483
    19  C    2.820117   2.471260   6.914935   4.924510   7.368088
    20  C    4.164035   3.723912   8.273404   6.220832   8.639264
    21  C    5.212187   4.189774   8.821310   7.333609   9.781235
    22  C    5.264220   3.675384   8.164087   7.388297   9.828808
    23  C    4.276613   2.386404   6.782910   6.334448   8.733250
    24  Cl   6.840032   5.933602  10.563923   8.927661  11.355268
    25  H    2.146953   2.750974   6.714130   4.107926   6.507651
    26  H    4.599069   4.609972   9.023682   6.505888   8.842303
    27  H    6.290508   4.535185   8.837801   8.398707  10.825528
    28  H    4.790224   2.594871   6.444456   6.709506   9.016570
                   16         17         18         19         20
    16  H    0.000000
    17  H    2.106964   0.000000
    18  C    3.820391   2.046324   0.000000
    19  C    4.792951   3.332925   1.395686   0.000000
    20  C    6.113678   4.455039   2.408817   1.392971   0.000000
    21  C    6.593586   4.664232   2.786015   2.416492   1.390096
    22  C    5.935452   3.864007   2.423202   2.797466   2.409758
    23  C    4.559839   2.477286   1.397032   2.412338   2.769145
    24  Cl   8.334269   6.376795   4.530092   4.020534   2.720094
    25  H    4.761961   3.740622   2.164567   1.080503   2.138648
    26  H    6.932431   5.422255   3.390066   2.145362   1.084752
    27  H    6.644598   4.538086   3.405114   3.882489   3.395700
    28  H    4.309305   2.235459   2.158843   3.400491   3.856478
                   21         22         23         24         25
    21  C    0.000000
    22  C    1.388706   0.000000
    23  C    2.396617   1.388283   0.000000
    24  Cl   1.744081   2.715218   4.003761   0.000000
    25  H    3.387628   3.877740   3.402082   4.858708   0.000000
    26  H    2.149106   3.392050   3.853896   2.862805   2.452392
    27  H    2.153087   1.085031   2.149145   2.863733   4.962769
    28  H    3.377331   2.137732   1.087376   4.852928   4.308672
                   26         27         28
    26  H    0.000000
    27  H    4.291477   0.000000
    28  H    4.941225   2.459568   0.000000
 Stoichiometry    C13H9Cl3N2O
 Framework group  C1[X(C13H9Cl3N2O)]
 Deg. of freedom    78
 Full point group                 C1      NOp   1
 Largest Abelian subgroup         C1      NOp   1
 Largest concise Abelian subgroup C1      NOp   1
                         Standard orientation:                         
 ---------------------------------------------------------------------
 Center     Atomic      Atomic             Coordinates (Angstroms)
 Number     Number       Type             X           Y           Z
 ---------------------------------------------------------------------
      1          6           0        4.515048   -0.755735    0.003183
      2          6           0        4.252961    0.611146   -0.002434
      3          6           0        2.943431    1.068615   -0.003359
      4          6           0        1.876137    0.170258    0.001358
      5          6           0        2.130529   -1.201926    0.007014
      6          6           0        3.448553   -1.648455    0.007852
      7         17           0        5.539339    1.778208   -0.008473
      8         17           0        6.144278   -1.366022    0.004497
      9          7           0        0.588943    0.727375    0.000735
     10          6           0       -0.601877    0.035107   -0.000263
     11          8           0       -0.677465   -1.186122   -0.002542
     12          7           0       -1.692339    0.872932    0.001295
     13          1           0        2.764891    2.140445   -0.007867
     14          1           0        1.327093   -1.924344    0.010919
     15          1           0        3.649203   -2.713833    0.012340
     16          1           0        0.564994    1.739878    0.000745
     17          1           0       -1.537705    1.873795    0.005147
     18          6           0       -3.045134    0.489933    0.000202
     19          6           0       -3.475936   -0.837538   -0.012856
     20          6           0       -4.840887   -1.115522   -0.013178
     21          6           0       -5.771591   -0.083049   -0.000622
     22          6           0       -5.349346    1.239846    0.012159
     23          6           0       -3.989494    1.519365    0.012539
     24         17           0       -7.477388   -0.446473   -0.000930
     25          1           0       -2.771999   -1.657208   -0.022838
     26          1           0       -5.174875   -2.147528   -0.023334
     27          1           0       -6.072384    2.048803    0.022017
     28          1           0       -3.665986    2.557451    0.022838
 ---------------------------------------------------------------------
 Rotational constants (GHZ):      1.2274511      0.0744079      0.0701554
 Basis read from rwf:  (6D, 7F)
 There are   391 symmetry adapted cartesian basis functions of A   symmetry.
 There are   391 symmetry adapted basis functions of A   symmetry.
   391 basis functions,   716 primitive gaussians,   391 cartesian basis functions
    80 alpha electrons       80 beta electrons
       nuclear repulsion energy      1572.1349976461 Hartrees.
 NAtoms=   28 NActive=   28 NUniq=   28 SFac= 1.00D+00 NAtFMM=   60 NAOKFM=F Big=F
 Integral buffers will be    131072 words long.
 Raffenetti 2 integral format.
 Two-electron integral symmetry is turned on.
 One-electron integrals computed using PRISM.
 NBasis=   391 RedAO= T EigKep=  1.13D-06  NBF=   391
 NBsUse=   390 1.00D-06 EigRej=  9.94D-07 NBFU=   390
 Initial guess from the checkpoint file:  "triclofen.M062X_6-31pGd_opt.chk"
 B after Tr=     0.000000   -0.000000    0.000000
         Rot=    1.000000    0.000009   -0.000011   -0.000729 Ang=   0.08 deg.
 ExpMin= 4.38D-02 ExpMax= 2.52D+04 ExpMxC= 3.78D+03 IAcc=2 IRadAn=         4 AccDes= 0.00D+00
 Harris functional with IExCor= 1009 and IRadAn=       4 diagonalized for initial guess.
 HarFok:  IExCor= 1009 AccDes= 0.00D+00 IRadAn=         4 IDoV= 1 UseB2=F ITyADJ=14
[...]
 00043,0.00000161,-0.00000110,0.00000203,-0.00002624,-0.00001311,0.0000
 1091,-0.00013559,0.00000470,0.00019622,-0.00268460,0.01226038,-0.00758
 528,-0.01383601,-0.00702981,0.00618832,-0.02232182,0.03700949,-0.06897
 858,0.04126209,-0.07202304,0.12951850,0.00000888,0.00000264,-0.0000036
 3,0.00005767,0.00000066,0.00000511,-0.00010669,-0.00001341,-0.00001670
 ,0.00027512,-0.00016740,0.00004903,-0.00000390,0.00007180,-0.00002111,
 0.00000325,-0.00001392,0.00000568,-0.00002650,-0.00002444,-0.00000576,
 -0.00002935,0.00000644,-0.00000090,-0.00062771,-0.00025698,0.00003347,
 -0.00108164,0.00166807,-0.00055725,0.00027927,-0.00149647,-0.00006691,
 0.00599533,-0.00056346,0.00081209,-0.00000159,-0.00000278,0.00000084,0
 .00001231,-0.00000520,0.00000366,0.00000373,0.00000089,-0.00000005,-0.
 00007255,-0.00001122,0.00000724,-0.00052633,-0.00030024,0.00024163,-0.
 04895844,0.06558756,-0.01369288,-0.04086220,-0.03623477,0.00160511,0.0
 6342494,-0.00136376,0.00527520,-0.12695873,-0.01259866,-0.00437235,0.7
 3293502,0.00000622,-0.00000778,0.00000348,0.00006061,0.00002893,0.0000
 1532,-0.00007125,-0.00006529,-0.00001483,0.00041347,0.00000297,-0.0000
 1494,-0.00005868,0.00006850,-0.00000284,0.00001888,-0.00001533,-0.0000
 0464,-0.00001473,-0.00001583,-0.00000318,-0.00004136,0.00001486,-0.000
 00162,-0.00030946,-0.00059058,-0.00008864,0.00185500,0.00045687,0.0006
 4774,0.00053944,0.00024847,-0.00018422,0.00334191,-0.00755435,0.001990
 17,0.00000466,0.00000747,-0.00000094,0.00000061,-0.00000890,0.00000432
 ,-0.00000116,0.00000146,0.00000052,-0.00000981,-0.00000845,0.00001625,
 0.00023791,-0.00046938,-0.00004179,0.00511480,0.06748827,-0.00817607,-
 0.03938165,-0.03909530,0.00128483,0.05826387,-0.04963461,0.01265487,-0
 .09008398,-0.32843801,0.02604157,-0.03360691,0.71727288,-0.00000373,0.
 00000119,0.00003070,-0.00000874,-0.00001623,-0.00001881,-0.00000219,0.
 00000351,0.00003532,-0.00007310,0.00001421,-0.00022405,0.00000791,-0.0
 0001226,0.00004971,-0.00000357,0.00001018,-0.00001445,0.00000419,0.000
 00395,0.00000500,0.00001430,-0.00000300,-0.00000227,0.00010320,0.00011
 260,-0.00027363,-0.00091141,0.00028990,0.00201797,0.00000751,-0.000288
 88,-0.00020328,0.00003288,0.00148288,0.00491960,0.00000193,0.00000353,
 -0.00001102,0.00000092,0.00000873,-0.00001671,-0.00000010,0.00000010,-
 0.00000377,0.00000543,-0.00000786,0.00002141,0.00003342,-0.00002660,-0
 .00084609,-0.00544491,-0.00229647,0.00343740,0.00178429,0.00144075,-0.
 00294035,-0.00259356,0.00737400,0.00604173,0.00575091,0.03293341,-0.06
 536750,0.05801951,-0.07862575,0.14591185,0.00011114,-0.00017140,-0.000
 01224,0.00011202,0.00023207,0.00004186,-0.00033271,0.00013724,-0.00000
 790,0.00086725,-0.00087134,0.00004660,-0.00028822,0.00016204,0.0000316
 3,0.00007387,-0.00004970,-0.00002228,-0.00015665,-0.00012753,-0.000033
 24,-0.00024844,0.00008828,-0.00000769,-0.00354061,0.00144595,-0.000080
 36,0.00549082,-0.01092489,-0.00025449,-0.00101202,0.00490719,0.0001829
 5,-0.06001522,0.03197810,-0.00982190,0.00003381,0.00002625,0.00000641,
 0.00010021,-0.00008166,-0.00001537,-0.00003205,0.00001382,0.00000119,0
 .00020123,0.00024161,-0.00005683,0.00091747,0.00327305,-0.00021178,-0.
 20449786,0.05168880,-0.01834075,0.06289579,0.05208397,-0.00233680,-0.0
 6958727,0.02358470,-0.00905217,0.00109456,-0.09970610,0.01245952,-0.35
 462564,-0.01520935,-0.02436997,0.71801094,-0.00002476,0.00000182,-0.00
 001136,0.00003626,-0.00003130,0.00000317,-0.00017260,0.00006052,-0.000
 00553,0.00018565,-0.00045289,-0.00001275,-0.00000321,0.00006938,-0.000
 01499,0.00003205,-0.00000484,0.00000671,-0.00002608,-0.00001911,-0.000
 00513,-0.00000638,-0.00000032,0.00000182,-0.00156618,0.00046729,0.0001
 6587,-0.00333897,-0.00203768,-0.00042068,0.00082225,0.00005501,-0.0001
 5141,-0.00413899,0.01316049,-0.00044441,-0.00000768,-0.00000888,-0.000
 00731,-0.00000056,-0.00000795,0.00000857,-0.00000043,0.00000026,0.0000
 0041,-0.00015359,0.00006876,-0.00005960,-0.00335529,0.00272812,-0.0007
 0104,0.13500721,-0.23602227,0.03336107,0.00015642,-0.04511609,0.007232
 62,0.01891477,-0.01027455,0.00257168,-0.03326124,0.00972030,-0.0033398
 9,-0.08979643,-0.13946962,0.00268315,0.03737047,0.72118286,0.00001593,
 -0.00000301,-0.00005984,-0.00000150,0.00001186,0.00006561,-0.00000244,
 0.00000531,-0.00004324,0.00009522,-0.00004281,-0.00005899,-0.00000926,
 -0.00000346,-0.00003914,-0.00000386,-0.00000807,0.00006503,-0.00001046
 ,-0.00000154,-0.00000801,-0.00002306,0.00000646,0.00000159,-0.00022932
 ,-0.00005237,0.00043620,0.00139089,-0.00100256,0.00090411,-0.00017696,
 0.00065777,-0.00026124,-0.00606838,0.00241735,0.00602805,0.00000273,0.
 00000060,-0.00000674,0.00000037,-0.00000268,-0.00002381,-0.00000026,0.
 00000117,-0.00000002,0.00000549,-0.00000291,-0.00006892,0.00058314,-0.
 00014144,-0.00073030,-0.02982474,0.02614313,-0.07269570,0.00481172,0.0
 1196983,0.00684657,-0.00826229,0.00267651,-0.00480564,0.00379935,-0.00
 897385,0.00827073,-0.01496395,0.00953924,-0.05974697,0.04776908,-0.074
 34851,0.14115556,0.00012665,-0.00015244,-0.00001483,0.00020449,0.00023
 306,0.00006470,-0.00035512,-0.00002774,-0.00003521,0.00131246,-0.00057
 344,0.00003570,-0.00027995,0.00024975,0.00002862,0.00008847,-0.0000708
 2,-0.00001344,-0.00016265,-0.00014449,-0.00003820,-0.00027217,0.000092
 20,-0.00000896,-0.00256436,-0.00033256,-0.00013201,0.00427102,-0.00178
 793,0.00045236,-0.00115872,0.00101269,-0.00002406,-0.00515861,0.000466
 39,-0.00033401,0.00002947,0.00002908,0.00000184,0.00012890,-0.00007858
 ,-0.00002012,-0.00001615,0.00001211,0.00000135,0.00007946,0.00011356,-
 0.00002343,-0.00002331,0.00011650,-0.00006327,0.00228793,-0.00006826,0
 .00028464,0.00118473,0.00533868,-0.00110487,-0.04058530,-0.01158187,-0
 .00253443,-0.16852917,-0.03259682,-0.00843230,-0.02832638,-0.00687753,
 -0.00202589,0.00150069,-0.00234861,0.00013098,0.23612150,0.00002942,-0
 .00003057,-0.00000006,0.00004771,0.00004694,0.00000976,-0.00008731,-0.
 00000960,-0.00000229,0.00030941,-0.00013840,-0.00000227,-0.00006934,0.
 00005135,0.00001814,0.00001848,-0.00001189,-0.00001181,-0.00003382,-0.
 00002825,-0.00000791,-0.00006249,0.00002191,-0.00000145,-0.00060912,-0
 .00000572,-0.00000871,0.00104564,-0.00084034,0.00005900,-0.00005756,0.
 00049139,-0.00003524,-0.00139059,0.00040014,-0.00020220,0.00000716,0.0
 0000777,0.00000200,0.00002514,-0.00001852,-0.00000110,-0.00000510,0.00
 000289,0.00000046,0.00003356,0.00002755,0.00000238,0.00011538,0.000009
 55,0.00000297,0.00000140,0.00212210,-0.00028701,-0.00062476,-0.0031360
 9,0.00093328,0.01688144,0.00720275,0.00101563,-0.03253502,-0.04700096,
 0.00055917,-0.03525586,-0.00523045,-0.00206294,0.00297519,-0.00396776,
 0.00137466,0.04989686,0.04827046,0.00000743,-0.00000936,0.00000112,0.0
 0001258,0.00001476,-0.00000261,-0.00002062,-0.00000415,0.00000050,0.00
 007781,-0.00003124,0.00001148,-0.00001504,0.00001778,0.00000203,0.0000
 0401,-0.00000463,-0.00000608,-0.00001019,-0.00000891,-0.00000121,-0.00
 001657,0.00000532,0.00000061,-0.00014813,-0.00003013,0.00006325,0.0002
 6672,-0.00004467,-0.00010485,-0.00015557,0.00002506,-0.00001060,-0.000
 22396,-0.00003948,-0.00065503,0.00000190,0.00000219,0.00000090,0.00000
 845,-0.00000807,0.00000301,-0.00000124,0.00000092,-0.00000088,0.000007
 20,0.00001085,0.00000232,-0.00002273,0.00000614,-0.00001239,0.00026984
 ,-0.00037135,-0.00039775,-0.00030000,0.00147206,0.00451587,-0.00610259
 ,-0.00157547,0.00317214,-0.00850614,0.00057748,-0.02193678,0.00169032,
 0.00047555,0.00344282,-0.00064722,0.00093475,0.00457417,0.01325436,-0.
 00045263,0.01233889,-0.00005971,0.00004701,-0.00000180,-0.00009369,-0.
 00009330,-0.00001567,0.00013142,0.00001649,0.00000231,-0.00055763,0.00
 016331,-0.00002208,0.00003301,-0.00009234,-0.00002752,-0.00000316,0.00
 005829,0.00001094,0.00007489,0.00007063,0.00001809,0.00011377,-0.00003
 441,0.00000516,0.00056027,0.00131213,0.00001601,0.00067829,-0.00821837
 ,0.00006060,-0.00802621,0.00367663,0.00032654,-0.00269997,0.00269467,0
 .00004154,-0.00000635,-0.00000692,-0.00000158,-0.00012093,0.00003384,0
 .00002474,0.00000289,-0.00000616,-0.00000035,0.00021059,0.00000868,0.0
 0006596,-0.00001554,0.00013583,-0.00008067,0.01402374,-0.00811155,0.00
 212614,-0.19318138,0.15181108,-0.03413426,-0.01464619,0.02029444,-0.00
 415917,-0.00321193,-0.00207356,-0.00060009,-0.00016447,-0.00093328,0.0
 0019973,-0.00059018,-0.00258516,-0.00009216,-0.00101427,0.00043908,-0.
 00013720,0.20707868,-0.00002132,0.00002702,0.00000504,-0.00004670,-0.0
 0004724,-0.00002452,0.00009110,-0.00000172,0.00000879,-0.00041322,0.00
 013201,-0.00000890,0.00010749,-0.00010665,-0.00000097,-0.00000682,0.00
 004235,-0.00000543,0.00003651,0.00002941,0.00000856,0.00006659,-0.0000
 2276,0.00000492,0.00056833,0.00063482,0.00015000,-0.00133557,-0.003958
 53,0.00000686,0.00325977,0.00187622,-0.00041076,0.00012412,0.00171417,
 -0.00053729,-0.00000612,-0.00001085,0.00000263,-0.00002727,0.00008226,
 0.00001538,0.00001365,-0.00000270,-0.00000178,0.00007030,0.00005859,0.
 00005138,0.00010040,-0.00009747,-0.00004775,0.02145190,-0.01558114,0.0
 0442694,0.14725804,-0.22121363,0.03621701,-0.00762478,0.01113973,-0.00
 165905,-0.00230026,0.00095859,0.00056520,-0.00117661,-0.00036812,-0.00
 013780,-0.00286262,-0.00416167,0.00100121,-0.00079657,0.00020216,-0.00
 008432,-0.15787821,0.22894989,0.00000621,0.00000209,0.00001198,0.00001
 853,0.00001297,-0.00002275,-0.00001718,-0.00001002,-0.00001913,0.00006
 304,-0.00001499,0.00007805,0.00000725,0.00003811,-0.00002875,-0.000011
 14,-0.00001091,-0.00005114,-0.00001044,-0.00001265,-0.00000239,-0.0000
 1642,0.00000148,0.00000244,-0.00006348,-0.00023339,0.00039670,-0.00011
 649,0.00130312,0.00003521,-0.00050503,-0.00058883,-0.00071677,0.000634
 68,-0.00062746,-0.00370086,-0.00000224,-0.00000491,0.00001699,0.000024
 20,-0.00001689,0.00009937,0.00000055,0.00000083,0.00000984,-0.00001579
 ,-0.00003216,0.00010029,0.00000582,-0.00000244,-0.00028536,-0.00178912
 ,0.00188885,0.00462365,-0.03285151,0.03520879,-0.04593957,-0.00091864,
 0.00131255,0.00328533,-0.00072288,0.00055490,0.00743299,0.00025111,-0.
 00014658,-0.00079100,-0.00020661,0.00109950,0.00576449,-0.00007147,0.0
 0004920,0.00011660,0.03585910,-0.03907541,0.03477489,0.00000134,-0.000
 00290,-0.00000094,0.00001183,0.00000370,0.00000303,-0.00003469,0.00000
 072,-0.00000129,0.00012514,-0.00005529,-0.00000201,-0.00003400,0.00001
 755,0.00000097,0.00000536,-0.00000101,-0.00000058,-0.00000577,-0.00000
 191,-0.00000125,-0.00001439,0.00000621,-0.00000046,-0.00025895,0.00008
 119,-0.00001536,0.00058177,-0.00059624,0.00000304,-0.00002103,0.000401
 60,-0.00002270,-0.00021053,-0.00146413,0.00022053,0.00000314,0.0000038
 5,0.00000108,0.00000146,-0.00001429,-0.00000008,-0.00000635,0.00000060
 ,0.00000064,0.00004269,0.00002431,0.00001269,-0.00045289,-0.00011268,-
 0.00000514,-0.00510844,-0.00058058,-0.00115904,-0.00435258,-0.02875948
 ,0.00307104,-0.08188476,-0.08209819,0.00671944,0.00874345,0.02111960,-
 0.00227874,-0.00293768,0.00321729,-0.00116077,-0.00123194,0.00037961,-
 0.00010465,0.00107673,0.00064923,0.00027376,0.00098001,0.00026740,0.00
 047624,0.08428268,0.00000630,-0.00000813,-0.00000033,0.00001135,0.0000
 1232,0.00000391,-0.00002215,-0.00000156,-0.00000151,0.00007727,-0.0000
 3496,-0.00000345,-0.00001644,0.00001609,-0.00000186,0.00000433,-0.0000
 0392,0.00000069,-0.00000900,-0.00000798,-0.00000235,-0.00001513,0.0000
 0534,-0.00000061,-0.00016439,-0.00000699,-0.00001352,0.00029272,-0.000
 17689,0.00004785,-0.00005987,0.00008745,0.00000242,-0.00019860,-0.0000
 8354,0.00002550,0.00000176,0.00000145,0.00000066,0.00000843,-0.0000042
 7,-0.00000140,-0.00000086,0.00000087,0.00000031,0.00000768,0.00000749,
 0.00000148,-0.00003042,0.00002631,-0.00001894,-0.00032214,0.00186237,0
 .00064614,-0.00032565,-0.00130644,0.00064192,-0.07982145,-0.32456204,0
 .02982967,-0.00950118,-0.01702749,0.00180476,0.00380216,-0.00143071,0.
 00126225,0.00058900,0.00066705,-0.00012216,-0.00028669,0.00084220,-0.0
 0049247,0.00000731,0.00058522,-0.00066725,0.08642938,0.34141025,-0.000
 00092,-0.00000014,0.00000195,0.00000027,0.00000028,-0.00000150,0.00000
 099,-0.00000061,-0.00000043,-0.00000935,0.00000306,-0.00000093,0.00000
 231,-0.00000113,-0.00000064,0.00000038,0.00000208,-0.00000578,-0.00000
 017,-0.00000057,-0.00000073,0.00000130,-0.00000067,-0.00000055,0.00001
 145,0.00001718,-0.00001987,0.00000192,-0.00000404,0.00006029,0.0000472
 6,0.00002335,-0.00000107,0.00003037,-0.00000868,0.00017098,-0.00000053
 ,-0.00000116,0.00000253,-0.00000007,0.00000135,0.00001011,0.00000059,-
 0.00000037,0.00000302,0.00000458,-0.00000275,0.00000531,-0.00000071,-0
 .00003178,-0.00014992,-0.00110526,0.00057831,0.00713967,-0.00058749,-0
 .00197157,0.00422760,0.00629973,0.02960071,-0.04103357,0.00169503,0.00
 448161,0.00317457,-0.00125109,0.00126345,0.00539021,-0.00013067,-0.000
 17430,-0.00075873,0.00043136,-0.00039117,-0.00268873,0.00038134,-0.000
 58782,-0.00445763,-0.00599145,-0.03294413,0.02942299,0.00000750,-0.000
 01406,-0.00000258,0.00001989,0.00002024,0.00000538,-0.00004935,0.00000
 981,-0.00000361,0.00013018,-0.00010339,0.00000917,-0.00002881,0.000025
 33,-0.00000223,0.00000959,-0.00000507,0.00000158,-0.00001831,-0.000015
 88,-0.00000385,-0.00002425,0.00000770,-0.00000087,-0.00040669,0.000086
 14,0.00000122,0.00028681,-0.00065413,-0.00004314,-0.00001974,0.0002214
 4,-0.00000782,-0.00122201,0.00146828,-0.00020529,0.00000301,0.00000220
 ,-0.00000049,0.00001195,-0.00000762,-0.00000147,-0.00000243,0.00000133
 ,-0.00000015,0.00001548,0.00002751,-0.00000307,0.00001186,0.00007674,0
 .00000766,-0.00349883,-0.00295798,-0.00056794,-0.00043694,-0.00079745,
 0.00015919,0.00019395,-0.00252129,-0.00016604,0.00834098,-0.00819163,0
 .00148537,-0.19321910,0.14449217,-0.03269567,-0.01474062,0.02214279,-0
 .00454736,0.00122479,-0.00047885,0.00039352,0.00002123,0.00010665,0.00
 005610,0.00060101,-0.00041150,0.00009373,0.20190081,-0.00000390,0.0000
 0335,-0.00000017,-0.00000267,-0.00000530,-0.00000233,0.00000004,0.0000
 0512,-0.00000035,-0.00002320,-0.00000849,0.00000587,0.00000380,-0.0000
 0442,-0.00000466,-0.00000103,0.00000224,0.00000140,0.00000177,0.000001
 86,0.00000054,0.00000555,-0.00000208,0.00000006,-0.00000504,0.00005043
 ,-0.00000466,-0.00020164,-0.00008365,-0.00004262,0.00005172,-0.0000013
 9,-0.00000059,-0.00010494,0.00050426,0.00000616,-0.00000048,-0.0000006
 1,0.00000015,-0.00000278,0.00000045,0.00000153,-0.00000027,-0.00000032
 ,0.00000025,0.00000043,0.00000308,0.00000250,0.00001070,-0.00000128,0.
 00000623,-0.00265575,0.00073523,0.00061147,-0.00108519,-0.00020449,-0.
 00019032,-0.00326438,-0.00468525,0.00105763,0.02230562,-0.01601961,0.0
 0449430,0.14233679,-0.20971907,0.03506143,-0.00680603,0.00984959,-0.00
 148293,0.00040612,0.00097715,-0.00043033,0.00006942,0.00003128,-0.0000
 8633,0.00113611,-0.00079507,0.00022765,-0.15249395,0.21874340,0.000001
 14,-0.00000317,0.00000124,0.00000284,0.00000491,-0.00000134,-0.0000033
 6,0.00000056,0.00000275,0.00001124,-0.00000558,-0.00000550,-0.00000271
 ,0.00000210,-0.00000037,0.00000124,-0.00000055,-0.00000254,-0.00000298
 ,-0.00000302,-0.00000162,-0.00000298,0.00000080,-0.00000037,-0.0000188
 9,0.00000710,-0.00005385,0.00002629,0.00000181,-0.00006119,-0.00003026
 ,0.00000252,0.00002802,-0.00007630,0.00011593,0.00028704,-0.00000012,-
 0.00000039,0.00000313,0.00000194,-0.00000134,0.00000275,0.,-0.00000012
 ,0.00000116,0.00000061,0.00000206,0.00001625,0.00000128,0.00000141,0.0
 0000084,-0.00061971,0.00058404,0.00721766,0.00017715,-0.00019072,-0.00
 086219,-0.00011299,0.00112737,0.00550769,-0.00240554,0.00170079,0.0029
 3222,-0.03243548,0.03527650,-0.04417016,-0.00072581,0.00115437,0.00316
 089,0.00029090,-0.00049852,-0.00261195,0.00003737,-0.00008458,-0.00072
 175,-0.00010874,0.00008237,0.00014340,0.03557004,-0.03860439,0.0335057
 2,-0.00000955,0.00001325,-0.00000025,-0.00002364,-0.00002217,-0.000004
 91,0.00004160,0.00000475,0.00000486,-0.00014154,0.00006500,-0.00000422
 ,0.00003264,-0.00002210,0.00000158,-0.00000763,0.00000186,0.00000076,0
 .00001686,0.00001447,0.00000390,0.00002508,-0.00000850,0.00000092,0.00
 027371,-0.00004461,0.00001048,-0.00040376,0.00054679,0.00007615,-0.000
 03068,-0.00040233,-0.00000616,0.00230684,0.00171749,0.00029173,-0.0000
 0475,-0.00000426,-0.00000326,-0.00000722,0.00000636,-0.00000162,0.0000
 0263,-0.00000129,-0.00000039,-0.00004134,-0.00001792,-0.00002273,-0.00
 094701,-0.00027829,-0.00021887,0.00824964,0.01939924,-0.00219653,-0.00
 257480,0.00297338,-0.00108601,-0.00129723,0.00039593,-0.00010383,-0.00
 418484,-0.00030024,-0.00096090,-0.00446662,-0.03096770,0.00332748,-0.0
 8051038,-0.07426131,0.00571574,-0.00119111,-0.00126530,0.00003931,0.00
 048281,0.00097381,-0.00008440,0.00009739,-0.00005221,0.00007509,0.0008
 8805,0.00032316,0.00042383,0.08342486,0.00001427,-0.00000650,-0.000001
 26,0.00002144,0.00001355,0.00000525,-0.00002666,-0.00001536,-0.0000043
 2,0.00012717,-0.00002502,0.00000749,-0.00003140,0.00001599,-0.00001621
 ,0.00000320,0.00000008,0.00000497,-0.00000941,-0.00000545,-0.00000303,
 -0.00002267,0.00000954,-0.00000040,-0.00004513,0.00006588,0.00000097,0
 .00082624,-0.00053758,-0.00016988,-0.00005161,0.00084112,0.00002386,-0
 .00189352,0.00164993,-0.00075313,0.00000600,0.00000674,0.00000529,0.00
 000143,-0.00001000,0.00000503,-0.00000441,0.00000083,0.00000119,0.0000
 7297,-0.00000736,0.00002903,0.00197061,-0.00015202,0.00035174,-0.01078
 772,-0.01732289,0.00186524,0.00435940,-0.00165973,0.00127330,0.0007893
 9,0.00053922,-0.00008023,-0.00082127,0.00229868,0.00056942,-0.00058847
 ,-0.00346892,0.00079201,-0.07398712,-0.31645653,0.03038324,-0.00024267
 ,-0.00025776,0.00004435,-0.00080559,-0.00089121,0.00005783,-0.00005165
 ,-0.00007443,-0.00007813,-0.00003554,0.00062359,-0.00067225,0.08121274
 ,0.33482563,-0.00000196,-0.00000142,0.00000232,0.00000221,0.00000520,-
 0.00000714,0.00000506,0.00000639,-0.00000661,-0.00000763,0.00000076,0.
 00005747,0.00000267,0.00000113,-0.00000390,0.00000233,-0.00000228,-0.0
 0001160,-0.00000134,-0.00000293,-0.00000219,0.00000017,-0.00000112,0.0
 0000051,-0.00001849,-0.00004480,0.00006317,0.00009077,-0.00002955,-0.0
 0082563,0.00002763,-0.00010895,0.00018325,0.00079933,-0.00021982,-0.00
 345095,-0.00000384,-0.00000384,0.00001385,-0.00000074,-0.00000320,0.00
 001612,0.00000082,-0.00000067,0.00000235,-0.00003423,0.00001957,0.0000
 4576,-0.00049521,0.00007344,0.00086975,0.00143591,0.00434407,0.0038883
 2,-0.00117937,0.00110683,0.00494209,-0.00016806,-0.00011933,-0.0007366
 4,-0.00089718,0.00062272,0.00707728,-0.00061196,-0.00190776,0.00332635
 ,0.00579487,0.03047322,-0.03796570,-0.00010030,-0.00006133,0.00018315,
 0.00009697,0.00020247,-0.00001172,0.00007073,-0.00007998,-0.00063255,0
 .00046861,-0.00062748,-0.00431791,-0.00527776,-0.03364138,0.02730083\\
 0.00000368,-0.00000160,-0.00000012,-0.00000070,-0.00000248,0.00000074,
 -0.00000512,0.00000405,-0.00000019,0.00000360,0.00000015,-0.00000133,-
 0.00000125,0.00000172,-0.00000034,-0.00000059,-0.00000155,-0.00000110,
 0.00000126,0.00000326,-0.00000167,-0.00000022,0.00000135,-0.00000046,-
 0.00000414,-0.00000322,0.00000588,0.00000220,0.00000934,-0.00000191,0.
 00000027,-0.00000289,-0.00000097,-0.00000139,-0.00000490,0.00000368,0.
 00000102,-0.00000002,0.00000040,-0.00000038,-0.00000042,-0.00000030,-0
 .00000051,0.00000016,-0.00000024,0.00000107,-0.00000015,-0.00000358,-0
 .00000096,-0.00000068,-0.00000300,0.00000478,-0.00000365,0.00000142,0.
 00000105,0.00000417,-0.00000109,-0.00000216,0.00000206,0.00000046,-0.0
 0000098,-0.00000386,0.00000083,-0.00000019,0.00000086,-0.00000094,-0.0
 0000171,0.00000050,0.00000019,0.00000053,-0.00000032,0.00000060,0.0000
 0065,-0.00000168,0.00000099,0.00000040,-0.00000066,0.00000073,0.000000
 84,0.00000043,0.00000104,-0.00000105,0.00000001,0.00000030\\\@


 EDUCATION WITHOUT COMMON SENSE IS A LOAD OF BOOKS ON THE BACK OF AN ASS.
 Job cpu time:       0 days  3 hours 23 minutes 44.8 seconds.
 File lengths (MBytes):  RWF=    492 Int=      0 D2E=      0 Chk=     13 Scr=      1
 Normal termination of Gaussian 09 at Tue Oct  9 01:56:26 2018.
