 Entering Gaussian System, Link 0=/apps/gaussian/g09e01/g09/g09
 AtFile(1): /home/507/hio507/Basis/6-31pGd.gbs
 Initial command:
 /apps/gaussian/g09e01/g09/l1.exe "/jobfs/local/5874175.r-man2/Gau-2085.inp" -scrdir="/jobfs/local/5874175.r-man2/"
 Entering Link 1 = /apps/gaussian/g09e01/g09/l1.exe PID=      2086.
  
 Copyright (c) 1988,1990,1992,1993,1995,1998,2003,2009,2015,
            Gaussian, Inc.  All Rights Reserved.
  
 This is part of the Gaussian(R) 09 program.  It is based on
 the Gaussian(R) 03 system (copyright 2003, Gaussian, Inc.),
 the Gaussian(R) 98 system (copyright 1998, Gaussian, Inc.),
 the Gaussian(R) 94 system (copyright 1995, Gaussian, Inc.),
 the Gaussian 92(TM) system (copyright 1992, Gaussian, Inc.),
 the Gaussian 90(TM) system (copyright 1990, Gaussian, Inc.),
 the Gaussian 88(TM) system (copyright 1988, Gaussian, Inc.),
 the Gaussian 86(TM) system (copyright 1986, Carnegie Mellon
 University), and the Gaussian 82(TM) system (copyright 1983,
 Carnegie Mellon University). Gaussian is a federally registered
 trademark of Gaussian, Inc.
  
 This software contains proprietary and confidential information,
 including trade secrets, belonging to Gaussian, Inc.
  
 This software is provided under written license and may be
 used, copied, transmitted, or stored only in accord with that
 written license.
  
 The following legend is applicable only to US Government
 contracts under FAR:
  
                    RESTRICTED RIGHTS LEGEND
  
 Use, reproduction and disclosure by the US Government is
 subject to restrictions as set forth in subparagraphs (a)
 and (c) of the Commercial Computer Software - Restricted
 Rights clause in FAR 52.227-19.
  
 Gaussian, Inc.
 340 Quinnipiac St., Bldg. 40, Wallingford CT 06492
  
  
 ---------------------------------------------------------------
 Warning -- This program may not be used in any manner that
 competes with the business of Gaussian, Inc. or will provide
 assistance to any competitor of Gaussian, Inc.  The licensee
 of this program is prohibited from giving any competitor of
 Gaussian, Inc. access to this program.  By using this program,
 the user acknowledges that Gaussian, Inc. is engaged in the
 business of creating and licensing software in the field of
 computational chemistry and represents and warrants to the
 licensee that it is not a competitor of Gaussian, Inc. and that
 it will not use this program in any manner prohibited above.
 ---------------------------------------------------------------
  

 Cite this work as:
 Gaussian 09, Revision E.01,
 M. J. Frisch, G. W. Trucks, H. B. Schlegel, G. E. Scuseria, 
 M. A. Robb, J. R. Cheeseman, G. Scalmani, V. Barone, B. Mennucci, 
 G. A. Petersson, H. Nakatsuji, M. Caricato, X. Li, H. P. Hratchian, 
 A. F. Izmaylov, J. Bloino, G. Zheng, J. L. Sonnenberg, M. Hada, 
 M. Ehara, K. Toyota, R. Fukuda, J. Hasegawa, M. Ishida, T. Nakajima, 
 Y. Honda, O. Kitao, H. Nakai, T. Vreven, J. A. Montgomery, Jr., 
 J. E. Peralta, F. Ogliaro, M. Bearpark, J. J. Heyd, E. Brothers, 
 K. N. Kudin, V. N. Staroverov, T. Keith, R. Kobayashi, J. Normand, 
 K. Raghavachari, A. Rendell, J. C. Burant, S. S. Iyengar, J. Tomasi, 
 M. Cossi, N. Rega, J. M. Millam, M. Klene, J. E. Knox, J. B. Cross, 
 V. Bakken, C. Adamo, J. Jaramillo, R. Gomperts, R. E. Stratmann, 
 O. Yazyev, A. J. Austin, R. Cammi, C. Pomelli, J. W. Ochterski, 
 R. L. Martin, K. Morokuma, V. G. Zakrzewski, G. A. Voth, 
 P. Salvador, J. J. Dannenberg, S. Dapprich, A. D. Daniels, 
 O. Farkas, J. B. Foresman, J. V. Ortiz, J. Cioslowski, 
 and D. J. Fox, Gaussian, Inc., Wallingford CT, 2013.
 
 ******************************************
 Gaussian 09:  ES64L-G09RevE.01 30-Nov-2015
                19-Feb-2019 
 ******************************************
 %chk=34TFM_EtO.M062X_6-31pGd_opt_Pentadecane.chk
 %mem=196608000
 %nproc=8
 Will use up to    8 processors via shared memory.
 ----------------------------------------------------------------------
 # M062X/Gen 6D SCF=Tight INT(grid=ultrafine) OPT IOP(2/17=4) SCRF=(SMD
 ,Solvent=n-Pentadecane) maxdisk=3221225472
 ----------------------------------------------------------------------
 1/14=-1,18=20,19=15,26=4,38=1/1,3;
 2/9=110,12=2,17=4,18=5,40=1/2;
 3/5=7,8=2,11=2,16=1,25=1,30=1,70=32201,71=1,72=151,74=-55,75=-5/1,2,3;
 4//1;
 5/5=2,32=2,38=5,53=151/2;
 6/7=2,8=2,9=2,10=2,28=1/1;
 7//1,2,3,16;
 1/14=-1,18=20,19=15,26=4/3(2);
 2/9=110,17=4/2;
 99//99;
 2/9=110,17=4/2;
 3/5=7,6=1,8=2,11=2,16=1,25=1,30=1,70=32205,71=1,72=151,74=-55,75=-5,82=7/1,2,3;
 4/5=5,16=3,69=1/1;
 5/5=2,32=2,38=5,53=151/2;
 7//1,2,3,16;
 1/14=-1,18=20,19=15,26=4/3(-5);
 2/9=110,17=4/2;
 6/7=2,8=2,9=2,10=2,19=2,28=1/1;
 99/9=1/99;
 ---------------------------------------
 34TFM_EtO.M062X_6-31pGd_opt_Pentadecane
 ---------------------------------------
 Symbolic Z-matrix:
 Charge = -1 Multiplicity = 1
 C                    -2.1131    2.45806  -0.31643 
 C                    -0.79881   1.69739  -0.16728 
 C                     0.40247   2.64631  -0.23662 
 N                     1.65407   1.92028  -0.09404 
 C                     2.85831   2.56218  -0.12577 
 O                     2.87725   3.77246  -0.2791 
 N                     4.01913   1.84176   0.01098 
 C                     5.37672   2.33872   0.00325 
 C                     5.73463   3.70208  -0.12192 
 C                     6.41575   1.40691   0.13015 
 C                     7.74822   1.80136   0.13231 
 C                     8.11651   3.14931   0.00856 
 C                     7.08531   4.12921  -0.12198 
 H                    -2.96337   1.74597  -0.26253 
 H                    -2.14807   2.9803   -1.29629 
 H                    -2.22197   3.20437   0.49921 
 H                    -0.72432   0.94463  -0.98212 
 H                    -0.79839   1.16898   0.81092 
 H                     0.32078   3.39805   0.57935 
 H                     0.39462   3.17288  -1.21654 
 H                     1.62056   0.78876   0.04699 
 H                     3.89524   0.70983   0.14535 
 H                     4.9854    4.45835  -0.21893 
 H                     6.20591   0.35149   0.22886 
 H                     8.50855   1.03523   0.23304 
 C                     7.37749   5.61677  -0.26087 
 C                     9.61598   3.4182    0.02894 
 F                     9.96856   4.74432  -0.09271 
 F                     10.21116   2.72939  -1.0131 
 F                     10.14066   2.95318   1.22185 
 F                     6.22448   6.37559  -0.37287 
 F                     8.12984   5.84274  -1.39953 
 F                     8.05858   6.06722   0.85576 
 O                     1.60466  -1.25567   0.38955 
 O                     3.82986  -1.33842   0.49019 
 C                     2.7611   -1.93197   0.54831 
 C                     2.73373  -3.41018   0.80291 
 C                     3.46454  -4.17118  -0.29885 
 H                     1.68006  -3.76144   0.84419 
 H                     3.21493  -3.62121   1.78186 
 H                     2.98277  -3.98123  -1.28187 
 H                     3.42527  -5.26048  -0.08713 
 H                     4.52951  -3.85812  -0.34732 
 
 Add virtual bond connecting atoms O34        and H21        Dist= 3.92D+00.
 Add virtual bond connecting atoms O35        and H22        Dist= 3.93D+00.

 GradGradGradGradGradGradGradGradGradGradGradGradGradGradGradGradGradGrad
 Berny optimization.
 Initialization pass.
                           ----------------------------
                           !    Initial Parameters    !
                           ! (Angstroms and Degrees)  !
 --------------------------                            --------------------------
 ! Name  Definition              Value          Derivative Info.                !
 --------------------------------------------------------------------------------
 ! R1    R(1,2)                  1.5259         estimate D2E/DX2                !
 ! R2    R(1,14)                 1.1104         estimate D2E/DX2                !
 ! R3    R(1,15)                 1.1109         estimate D2E/DX2                !
 ! R4    R(1,16)                 1.1109         estimate D2E/DX2                !
 ! R5    R(2,3)                  1.5324         estimate D2E/DX2                !
 ! R6    R(2,17)                 1.1118         estimate D2E/DX2                !
 ! R7    R(2,18)                 1.1118         estimate D2E/DX2                !
 ! R8    R(3,4)                  1.4539         estimate D2E/DX2                !
 ! R9    R(3,19)                 1.1125         estimate D2E/DX2                !
 ! R10   R(3,20)                 1.1125         estimate D2E/DX2                !
 ! R11   R(4,5)                  1.365          estimate D2E/DX2                !
 ! R12   R(4,21)                 1.1408         estimate D2E/DX2                !
 ! R13   R(5,6)                  1.2201         estimate D2E/DX2                !
 ! R14   R(5,7)                  1.373          estimate D2E/DX2                !
 ! R15   R(7,8)                  1.4457         estimate D2E/DX2                !
 ! R16   R(7,22)                 1.1466         estimate D2E/DX2                !
 ! R17   R(8,9)                  1.4151         estimate D2E/DX2                !
 ! R18   R(8,10)                 1.4014         estimate D2E/DX2                !
 ! R19   R(9,13)                 1.4166         estimate D2E/DX2                !
 ! R20   R(9,23)                 1.069          estimate D2E/DX2                !
 ! R21   R(10,11)                1.3896         estimate D2E/DX2                !
 ! R22   R(10,24)                1.0806         estimate D2E/DX2                !
 ! R23   R(11,12)                1.4028         estimate D2E/DX2                !
 ! R24   R(11,25)                1.0841         estimate D2E/DX2                !
 ! R25   R(12,13)                1.4285         estimate D2E/DX2                !
 ! R26   R(12,27)                1.5235         estimate D2E/DX2                !
 ! R27   R(13,26)                1.5223         estimate D2E/DX2                !
 ! R28   R(21,34)                2.073          estimate D2E/DX2                !
 ! R29   R(22,35)                2.0781         estimate D2E/DX2                !
 ! R30   R(26,31)                1.3848         estimate D2E/DX2                !
 ! R31   R(26,32)                1.3833         estimate D2E/DX2                !
 ! R32   R(26,33)                1.3833         estimate D2E/DX2                !
 ! R33   R(27,28)                1.3776         estimate D2E/DX2                !
 ! R34   R(27,29)                1.3837         estimate D2E/DX2                !
 ! R35   R(27,30)                1.3837         estimate D2E/DX2                !
 ! R36   R(34,36)                1.3491         estimate D2E/DX2                !
 ! R37   R(35,36)                1.2239         estimate D2E/DX2                !
 ! R38   R(36,37)                1.5002         estimate D2E/DX2                !
 ! R39   R(37,38)                1.5255         estimate D2E/DX2                !
 ! R40   R(37,39)                1.1114         estimate D2E/DX2                !
 ! R41   R(37,40)                1.111          estimate D2E/DX2                !
 ! R42   R(38,41)                1.1111         estimate D2E/DX2                !
 ! R43   R(38,42)                1.1104         estimate D2E/DX2                !
 ! R44   R(38,43)                1.1111         estimate D2E/DX2                !
 ! A1    A(2,1,14)             109.5803         estimate D2E/DX2                !
 ! A2    A(2,1,15)             110.3463         estimate D2E/DX2                !
 ! A3    A(2,1,16)             110.3378         estimate D2E/DX2                !
 ! A4    A(14,1,15)            108.6747         estimate D2E/DX2                !
 ! A5    A(14,1,16)            108.6719         estimate D2E/DX2                !
 ! A6    A(15,1,16)            109.1902         estimate D2E/DX2                !
 ! A7    A(1,2,3)              111.229          estimate D2E/DX2                !
 ! A8    A(1,2,17)             108.8803         estimate D2E/DX2                !
 ! A9    A(1,2,18)             108.8604         estimate D2E/DX2                !
 ! A10   A(3,2,17)             109.4853         estimate D2E/DX2                !
 ! A11   A(3,2,18)             109.5007         estimate D2E/DX2                !
 ! A12   A(17,2,18)            108.845          estimate D2E/DX2                !
 ! A13   A(2,3,4)              111.1716         estimate D2E/DX2                !
 ! A14   A(2,3,19)             109.1283         estimate D2E/DX2                !
 ! A15   A(2,3,20)             109.1127         estimate D2E/DX2                !
 ! A16   A(4,3,19)             109.1908         estimate D2E/DX2                !
 ! A17   A(4,3,20)             109.1969         estimate D2E/DX2                !
 ! A18   A(19,3,20)            109.0089         estimate D2E/DX2                !
 ! A19   A(3,4,5)              121.4896         estimate D2E/DX2                !
 ! A20   A(3,4,21)             118.8253         estimate D2E/DX2                !
 ! A21   A(5,4,21)             119.6851         estimate D2E/DX2                !
 ! A22   A(4,5,6)              118.8871         estimate D2E/DX2                !
 ! A23   A(4,5,7)              119.7896         estimate D2E/DX2                !
 ! A24   A(6,5,7)              121.323          estimate D2E/DX2                !
 ! A25   A(5,7,8)              127.808          estimate D2E/DX2                !
 ! A26   A(5,7,22)             115.9959         estimate D2E/DX2                !
 ! A27   A(8,7,22)             116.1961         estimate D2E/DX2                !
 ! A28   A(7,8,9)              124.6914         estimate D2E/DX2                !
 ! A29   A(7,8,10)             117.8514         estimate D2E/DX2                !
 ! A30   A(9,8,10)             117.4571         estimate D2E/DX2                !
 ! A31   A(8,9,13)             122.1167         estimate D2E/DX2                !
 ! A32   A(8,9,23)             120.8213         estimate D2E/DX2                !
 ! A33   A(13,9,23)            117.0618         estimate D2E/DX2                !
 ! A34   A(8,10,11)            121.4883         estimate D2E/DX2                !
 ! A35   A(8,10,24)            120.9115         estimate D2E/DX2                !
 ! A36   A(11,10,24)           117.6002         estimate D2E/DX2                !
 ! A37   A(10,11,12)           121.6243         estimate D2E/DX2                !
 ! A38   A(10,11,25)           118.168          estimate D2E/DX2                !
 ! A39   A(12,11,25)           120.2077         estimate D2E/DX2                !
 ! A40   A(11,12,13)           118.5336         estimate D2E/DX2                !
 ! A41   A(11,12,27)           115.2645         estimate D2E/DX2                !
 ! A42   A(13,12,27)           126.2019         estimate D2E/DX2                !
 ! A43   A(9,13,12)            118.7799         estimate D2E/DX2                !
 ! A44   A(9,13,26)            118.5307         estimate D2E/DX2                !
 ! A45   A(12,13,26)           122.6893         estimate D2E/DX2                !
 ! A46   A(13,26,31)           112.5203         estimate D2E/DX2                !
 ! A47   A(13,26,32)           109.8221         estimate D2E/DX2                !
 ! A48   A(13,26,33)           109.8182         estimate D2E/DX2                !
 ! A49   A(31,26,32)           107.2619         estimate D2E/DX2                !
 ! A50   A(31,26,33)           107.2646         estimate D2E/DX2                !
 ! A51   A(32,26,33)           110.0877         estimate D2E/DX2                !
 ! A52   A(12,27,28)           114.8738         estimate D2E/DX2                !
 ! A53   A(12,27,29)           108.991          estimate D2E/DX2                !
 ! A54   A(12,27,30)           108.9912         estimate D2E/DX2                !
 ! A55   A(28,27,29)           107.6152         estimate D2E/DX2                !
 ! A56   A(28,27,30)           107.6141         estimate D2E/DX2                !
 ! A57   A(29,27,30)           108.5938         estimate D2E/DX2                !
 ! A58   A(21,34,36)           120.4828         estimate D2E/DX2                !
 ! A59   A(22,35,36)           120.8874         estimate D2E/DX2                !
 ! A60   A(34,36,35)           119.9904         estimate D2E/DX2                !
 ! A61   A(34,36,37)           119.887          estimate D2E/DX2                !
 ! A62   A(35,36,37)           120.1218         estimate D2E/DX2                !
 ! A63   A(36,37,38)           111.1143         estimate D2E/DX2                !
 ! A64   A(36,37,39)           109.5726         estimate D2E/DX2                !
 ! A65   A(36,37,40)           109.1947         estimate D2E/DX2                !
 ! A66   A(38,37,39)           108.8646         estimate D2E/DX2                !
 ! A67   A(38,37,40)           109.5196         estimate D2E/DX2                !
 ! A68   A(39,37,40)           108.5322         estimate D2E/DX2                !
 ! A69   A(37,38,41)           110.2418         estimate D2E/DX2                !
 ! A70   A(37,38,42)           109.5564         estimate D2E/DX2                !
 ! A71   A(37,38,43)           110.4955         estimate D2E/DX2                !
 ! A72   A(41,38,42)           108.7279         estimate D2E/DX2                !
 ! A73   A(41,38,43)           109.1984         estimate D2E/DX2                !
 ! A74   A(42,38,43)           108.5799         estimate D2E/DX2                !
 ! A75   L(4,21,34,2,-1)       181.3228         estimate D2E/DX2                !
 ! A76   L(7,22,35,1,-1)       184.4922         estimate D2E/DX2                !
 ! A77   L(4,21,34,2,-2)       182.5155         estimate D2E/DX2                !
 ! A78   L(7,22,35,1,-2)       182.6937         estimate D2E/DX2                !
 ! D1    D(14,1,2,3)           179.9871         estimate D2E/DX2                !
 ! D2    D(14,1,2,17)           59.2536         estimate D2E/DX2                !
 ! D3    D(14,1,2,18)          -59.2733         estimate D2E/DX2                !
 ! D4    D(15,1,2,3)            60.3593         estimate D2E/DX2                !
 ! D5    D(15,1,2,17)          -60.3742         estimate D2E/DX2                !
 ! D6    D(15,1,2,18)         -178.9011         estimate D2E/DX2                !
 ! D7    D(16,1,2,3)           -60.3938         estimate D2E/DX2                !
 ! D8    D(16,1,2,17)          178.8727         estimate D2E/DX2                !
 ! D9    D(16,1,2,18)           60.3459         estimate D2E/DX2                !
 ! D10   D(1,2,3,4)            179.9858         estimate D2E/DX2                !
 ! D11   D(1,2,3,19)            59.4924         estimate D2E/DX2                !
 ! D12   D(1,2,3,20)           -59.5233         estimate D2E/DX2                !
 ! D13   D(17,2,3,4)           -59.6372         estimate D2E/DX2                !
 ! D14   D(17,2,3,19)          179.8694         estimate D2E/DX2                !
 ! D15   D(17,2,3,20)           60.8536         estimate D2E/DX2                !
 ! D16   D(18,2,3,4)            59.6235         estimate D2E/DX2                !
 ! D17   D(18,2,3,19)          -60.8699         estimate D2E/DX2                !
 ! D18   D(18,2,3,20)         -179.8856         estimate D2E/DX2                !
 ! D19   D(2,3,4,5)            179.9523         estimate D2E/DX2                !
 ! D20   D(2,3,4,21)            -0.037          estimate D2E/DX2                !
 ! D21   D(19,3,4,5)           -59.5912         estimate D2E/DX2                !
 ! D22   D(19,3,4,21)          120.4195         estimate D2E/DX2                !
 ! D23   D(20,3,4,5)            59.5112         estimate D2E/DX2                !
 ! D24   D(20,3,4,21)         -120.4781         estimate D2E/DX2                !
 ! D25   D(3,4,5,6)             -0.0847         estimate D2E/DX2                !
 ! D26   D(3,4,5,7)           -179.9324         estimate D2E/DX2                !
 ! D27   D(21,4,5,6)           179.9046         estimate D2E/DX2                !
 ! D28   D(21,4,5,7)             0.0568         estimate D2E/DX2                !
 ! D29   D(3,4,34,36)         -178.7308         estimate D2E/DX2                !
 ! D30   D(5,4,34,36)           -0.4221         estimate D2E/DX2                !
 ! D31   D(4,5,7,8)            179.9859         estimate D2E/DX2                !
 ! D32   D(4,5,7,22)             0.1148         estimate D2E/DX2                !
 ! D33   D(6,5,7,8)              0.1419         estimate D2E/DX2                !
 ! D34   D(6,5,7,22)          -179.7292         estimate D2E/DX2                !
 ! D35   D(5,7,8,9)              1.5194         estimate D2E/DX2                !
 ! D36   D(5,7,8,10)          -178.5593         estimate D2E/DX2                !
 ! D37   D(22,7,8,9)          -178.6098         estimate D2E/DX2                !
 ! D38   D(22,7,8,10)            1.3116         estimate D2E/DX2                !
 ! D39   D(5,7,35,36)            0.3903         estimate D2E/DX2                !
 ! D40   D(8,7,35,36)          178.8528         estimate D2E/DX2                !
 ! D41   D(7,8,9,13)           179.957          estimate D2E/DX2                !
 ! D42   D(7,8,9,23)             0.105          estimate D2E/DX2                !
 ! D43   D(10,8,9,13)            0.0353         estimate D2E/DX2                !
 ! D44   D(10,8,9,23)         -179.8167         estimate D2E/DX2                !
 ! D45   D(7,8,10,11)         -179.9855         estimate D2E/DX2                !
 ! D46   D(7,8,10,24)            0.0946         estimate D2E/DX2                !
 ! D47   D(9,8,10,11)           -0.0583         estimate D2E/DX2                !
 ! D48   D(9,8,10,24)         -179.9783         estimate D2E/DX2                !
 ! D49   D(8,9,13,12)            0.0071         estimate D2E/DX2                !
 ! D50   D(8,9,13,26)         -179.9663         estimate D2E/DX2                !
 ! D51   D(23,9,13,12)         179.8644         estimate D2E/DX2                !
 ! D52   D(23,9,13,26)          -0.1091         estimate D2E/DX2                !
 ! D53   D(8,10,11,12)           0.0392         estimate D2E/DX2                !
 ! D54   D(8,10,11,25)        -179.9616         estimate D2E/DX2                !
 ! D55   D(24,10,11,12)        179.9617         estimate D2E/DX2                !
 ! D56   D(24,10,11,25)         -0.0391         estimate D2E/DX2                !
 ! D57   D(10,11,12,13)          0.0054         estimate D2E/DX2                !
 ! D58   D(10,11,12,27)        179.9841         estimate D2E/DX2                !
 ! D59   D(25,11,12,13)       -179.9938         estimate D2E/DX2                !
 ! D60   D(25,11,12,27)         -0.0152         estimate D2E/DX2                !
 ! D61   D(11,12,13,9)          -0.0277         estimate D2E/DX2                !
 ! D62   D(11,12,13,26)        179.9446         estimate D2E/DX2                !
 ! D63   D(27,12,13,9)         179.9963         estimate D2E/DX2                !
 ! D64   D(27,12,13,26)         -0.0315         estimate D2E/DX2                !
 ! D65   D(11,12,27,28)       -179.9816         estimate D2E/DX2                !
 ! D66   D(11,12,27,29)         59.1995         estimate D2E/DX2                !
 ! D67   D(11,12,27,30)        -59.1641         estimate D2E/DX2                !
 ! D68   D(13,12,27,28)         -0.0049         estimate D2E/DX2                !
 ! D69   D(13,12,27,29)       -120.8237         estimate D2E/DX2                !
 ! D70   D(13,12,27,30)        120.8127         estimate D2E/DX2                !
 ! D71   D(9,13,26,31)          -0.0099         estimate D2E/DX2                !
 ! D72   D(9,13,26,32)        -119.4112         estimate D2E/DX2                !
 ! D73   D(9,13,26,33)         119.3923         estimate D2E/DX2                !
 ! D74   D(12,13,26,31)       -179.9822         estimate D2E/DX2                !
 ! D75   D(12,13,26,32)         60.6165         estimate D2E/DX2                !
 ! D76   D(12,13,26,33)        -60.58           estimate D2E/DX2                !
 ! D77   D(21,34,36,35)         -0.0155         estimate D2E/DX2                !
 ! D78   D(21,34,36,37)        179.6729         estimate D2E/DX2                !
 ! D79   D(22,35,36,34)         -0.0974         estimate D2E/DX2                !
 ! D80   D(22,35,36,37)       -179.785          estimate D2E/DX2                !
 ! D81   D(34,36,37,38)        119.3365         estimate D2E/DX2                !
 ! D82   D(34,36,37,39)         -1.005          estimate D2E/DX2                !
 ! D83   D(34,36,37,40)       -119.7534         estimate D2E/DX2                !
 ! D84   D(35,36,37,38)        -60.9756         estimate D2E/DX2                !
 ! D85   D(35,36,37,39)        178.6829         estimate D2E/DX2                !
 ! D86   D(35,36,37,40)         59.9346         estimate D2E/DX2                !
 ! D87   D(36,37,38,41)        -60.1741         estimate D2E/DX2                !
 ! D88   D(36,37,38,42)       -179.7879         estimate D2E/DX2                !
 ! D89   D(36,37,38,43)         60.6237         estimate D2E/DX2                !
 ! D90   D(39,37,38,41)         60.5855         estimate D2E/DX2                !
 ! D91   D(39,37,38,42)        -59.0283         estimate D2E/DX2                !
 ! D92   D(39,37,38,43)       -178.6167         estimate D2E/DX2                !
 ! D93   D(40,37,38,41)        179.1071         estimate D2E/DX2                !
 ! D94   D(40,37,38,42)         59.4933         estimate D2E/DX2                !
 ! D95   D(40,37,38,43)        -60.0951         estimate D2E/DX2                !
 --------------------------------------------------------------------------------
 Trust Radius=3.00D-01 FncErr=1.00D-07 GrdErr=1.00D-06
 Number of steps in this run=    227 maximum allowed number of steps=    258.
 GradGradGradGradGradGradGradGradGradGradGradGradGradGradGradGradGradGrad

                          Input orientation:                          
 ---------------------------------------------------------------------
 Center     Atomic      Atomic             Coordinates (Angstroms)
 Number     Number       Type             X           Y           Z
 ---------------------------------------------------------------------
      1          6           0       -2.113100    2.458060   -0.316430
      2          6           0       -0.798810    1.697390   -0.167280
      3          6           0        0.402470    2.646310   -0.236620
      4          7           0        1.654070    1.920280   -0.094040
      5          6           0        2.858310    2.562180   -0.125770
      6          8           0        2.877250    3.772460   -0.279100
      7          7           0        4.019130    1.841760    0.010980
      8          6           0        5.376720    2.338720    0.003250
      9          6           0        5.734630    3.702080   -0.121920
     10          6           0        6.415750    1.406910    0.130150
     11          6           0        7.748220    1.801360    0.132310
     12          6           0        8.116510    3.149310    0.008560
     13          6           0        7.085310    4.129210   -0.121980
     14          1           0       -2.963370    1.745970   -0.262530
     15          1           0       -2.148070    2.980300   -1.296290
     16          1           0       -2.221970    3.204370    0.499210
     17          1           0       -0.724320    0.944630   -0.982120
     18          1           0       -0.798390    1.168980    0.810920
     19          1           0        0.320780    3.398050    0.579350
     20          1           0        0.394620    3.172880   -1.216540
     21          1           0        1.620560    0.788760    0.046990
     22          1           0        3.895240    0.709830    0.145350
     23          1           0        4.985400    4.458350   -0.218930
     24          1           0        6.205910    0.351490    0.228860
     25          1           0        8.508550    1.035230    0.233040
     26          6           0        7.377490    5.616770   -0.260870
     27          6           0        9.615980    3.418200    0.028940
     28          9           0        9.968560    4.744320   -0.092710
     29          9           0       10.211160    2.729390   -1.013100
     30          9           0       10.140660    2.953180    1.221850
     31          9           0        6.224480    6.375590   -0.372870
     32          9           0        8.129840    5.842740   -1.399530
     33          9           0        8.058580    6.067220    0.855760
     34          8           0        1.604660   -1.255670    0.389550
     35          8           0        3.829860   -1.338420    0.490190
     36          6           0        2.761100   -1.931970    0.548310
     37          6           0        2.733730   -3.410180    0.802910
     38          6           0        3.464540   -4.171180   -0.298850
     39          1           0        1.680060   -3.761440    0.844190
     40          1           0        3.214930   -3.621210    1.781860
     41          1           0        2.982770   -3.981230   -1.281870
     42          1           0        3.425270   -5.260480   -0.087130
     43          1           0        4.529510   -3.858120   -0.347320
 ---------------------------------------------------------------------
                    Distance matrix (angstroms):
                    1          2          3          4          5
     1  C    0.000000
     2  C    1.525851   0.000000
     3  C    2.523866   1.532426   0.000000
     4  N    3.811854   2.464075   1.453943   0.000000
     5  C    4.976154   3.758206   2.459780   1.365004   0.000000
     6  O    5.160682   4.222776   2.719293   2.227327   1.220101
     7  N    6.171812   4.823398   3.713332   2.368692   1.373029
     8  C    7.497589   6.211083   4.989520   3.747356   2.531594
     9  C    7.948100   6.834228   5.436887   4.452702   3.093962
    10  C    8.604977   7.226529   6.150623   4.794518   3.749070
    11  C    9.893344   8.552911   7.403384   6.099511   4.955469
    12  C   10.258088   9.034485   7.734309   6.579071   5.292583
    13  C    9.351005   8.250767   6.846348   5.863320   4.508118
    14  H    1.110377   2.167199   3.484274   4.623800   5.880209
    15  H    1.110893   2.177389   2.782032   4.126175   5.158370
    16  H    1.110900   2.177288   2.782187   4.126078   5.158707
    17  H    2.159241   1.111828   2.172819   2.719801   4.023064
    18  H    2.158960   1.111797   2.172995   2.719920   4.023661
    19  H    2.758582   2.168682   1.112472   2.101171   2.763138
    20  H    2.758591   2.168477   1.112466   2.101244   2.762698
    21  H    4.105953   2.593236   2.239346   1.140767   2.169537
    22  H    6.274528   4.806986   4.011895   2.558386   2.140077
    23  H    7.375593   6.409575   4.928189   4.189887   2.851079
    24  H    8.598890   7.143842   6.258018   4.825413   4.027324
    25  H   10.730602   9.339468   8.277964   6.919118   5.863918
    26  C   10.002591   9.067645   7.581235   6.815380   5.456350
    27  C   11.773380  10.557819   9.249600   8.102524   6.813429
    28  F   12.298111  11.190424   9.794510   8.780999   7.437640
    29  F   12.346917  11.090531   9.839727   8.644254   7.408085
    30  F   12.359858  11.098590   9.851581   8.649894   7.416305
    31  F    9.212245   8.441234   6.915338   6.388754   5.092569
    32  F   10.841909   9.920845   8.442853   7.682812   6.338262
    33  F   10.856479   9.929521   8.456473   7.688757   6.347560
    34  O    5.302069   3.848024   4.130714   3.212936   4.051317
    35  O    7.098075   5.574316   5.305971   3.961630   4.066694
    36  C    6.616492   5.133934   5.209597   4.059305   4.545461
    37  C    7.692914   6.285490   6.572402   5.512167   6.045416
    38  C    8.663556   7.254900   7.473842   6.358116   6.762811
    39  H    7.376807   6.080024   6.622662   5.758723   6.505172
    40  H    8.351542   6.942389   7.160028   6.055031   6.480783
    41  H    8.268278   6.912987   7.188517   6.164755   6.645921
    42  H    9.502735   8.140100   8.466227   7.395979   7.843274
    43  H    9.166207   7.699812   7.704046   6.459273   6.637940
                    6          7          8          9         10
     6  O    0.000000
     7  N    2.261778   0.000000
     8  C    2.895286   1.445711   0.000000
     9  C    2.862565   2.534047   1.415103   0.000000
    10  C    4.276014   2.438664   1.401412   2.407337   0.000000
    11  C    5.270753   3.731282   2.435041   2.780632   1.389630
    12  C    5.284024   4.300955   2.857190   2.448659   2.437894
    13  C    4.226077   3.827736   2.478067   1.416607   2.814746
    14  H    6.182215   6.988511   8.365351   8.916352   9.393458
    15  H    5.188067   6.406214   7.663086   8.002317   8.823225
    16  H    5.189464   6.406747   7.663903   7.996312   8.830474
    17  H    4.632728   4.928631   6.335387   7.075416   7.240956
    18  H    4.634283   4.929608   6.336608   7.068744   7.250095
    19  H    2.722620   4.052515   5.197750   5.467539   6.427681
    20  H    2.720614   4.051637   5.196637   5.476673   6.417650
    21  H    3.253931   2.619779   4.063622   5.043960   4.835584
    22  H    3.255175   1.146590   2.206413   3.522549   2.615172
    23  H    2.217738   2.798764   2.166870   1.068972   3.388074
    24  H    4.800108   2.655256   2.165073   3.401706   1.080596
    25  H    6.282217   4.566694   3.400037   3.864287   2.128038
    26  C    4.863535   5.059959   3.849474   2.526724   4.335985
    27  C    6.755063   5.814655   4.374616   3.894640   3.781138
    28  F    7.160023   6.620523   5.184700   4.360422   4.879593
    29  F    7.443990   6.338601   4.955542   4.666867   4.178649
    30  F    7.461983   6.338343   4.955570   4.666869   4.178243
    31  F    4.241347   5.056335   4.142038   2.729576   4.997739
    32  F    5.755964   5.907226   4.671790   3.457129   4.995459
    33  F    5.779274   5.906380   4.671280   3.456948   4.994386
    34  O    5.229596   3.945511   5.224682   6.472831   5.504835
    35  O    5.255508   3.221647   4.018861   5.423050   3.788574
    36  C    5.765294   4.014026   5.037594   6.405748   4.967841
    37  C    7.265099   5.464639   6.377672   7.774635   6.100347
    38  C    7.965345   6.046405   6.791649   8.195904   6.325249
    39  H    7.710687   6.128731   7.182230   8.548511   7.046166
    40  H    7.682964   5.798862   6.584645   7.975202   6.185094
    41  H    7.818976   6.054149   6.879266   8.243268   6.543027
    42  H    9.051585   7.127700   7.846284   9.255368   7.310559
    43  H    7.807712   5.733890   6.264303   7.658965   5.613058
                   11         12         13         14         15
    11  C    0.000000
    12  C    1.402826   0.000000
    13  C    2.433721   1.428502   0.000000
    14  H   10.719008  11.171687  10.328386   0.000000
    15  H   10.068136  10.348565   9.378396   1.804701   0.000000
    16  H   10.075105  10.350263   9.373722   1.804675   1.810936
    17  H    8.588357   9.165279   8.477719   2.484613   2.503941
    18  H    8.596799   9.167384   8.472661   2.484422   3.089150
    19  H    7.610265   7.820555   6.839980   3.771442   3.128540
    20  H    7.601046   7.818504   6.846748   3.771247   2.551219
    21  H    6.211349   6.911660   6.407078   4.693023   4.561778
    22  H    4.004630   4.877386   4.684034   6.948416   6.614753
    23  H    3.849174   3.401351   2.127758   8.398920   7.364220
    24  H    2.119001   3.395103   3.894560   9.287720   8.889640
    25  H    1.084068   2.161810   3.424086  11.504594  10.940096
    26  C    3.853490   2.589807   1.522332  11.041580   9.937774
    27  C    2.472526   1.523525   2.632984  12.693359  11.846555
    28  F    3.693448   2.446304   2.948279  13.276059  12.303377
    29  F    2.870414   2.368054   3.539001  13.232487  12.365020
    30  F    2.870114   2.368063   3.538939  13.242973  12.544108
    31  F    4.847739   3.759541   2.418718  10.288933   9.081866
    32  F    4.338769   3.039319   2.378941  11.880051  10.669567
    33  F    4.337887   3.038964   2.378889  11.891474  10.878240
    34  O    6.866945   7.871035   7.700397   5.504721   5.904954
    35  O    5.033869   6.224713   6.392784   7.498535   7.588050
    36  C    6.243571   7.402105   7.475693   6.852318   7.185603
    37  C    7.263261   8.522454   8.754089   7.757448   8.311248
    38  C    7.362544   8.678992   9.057468   8.736819   9.145488
    39  H    8.262813   9.480751   9.613146   7.288198   8.042841
    40  H    7.257823   8.544590   8.869806   8.435493   9.045259
    41  H    7.625468   8.880602   9.162719   8.318441   8.648042
    42  H    8.282852   9.630237  10.077866   9.483450  10.021709
    43  H    6.528388   7.880184   8.389299   9.357150   9.604926
                   16         17         18         19         20
    16  H    0.000000
    17  H    3.089291   0.000000
    18  H    2.503309   1.808539   0.000000
    19  H    2.551375   3.090258   2.504979   0.000000
    20  H    3.129111   2.504412   3.090224   1.811457   0.000000
    21  H    4.561218   2.565507   2.565049   2.963314   2.963691
    22  H    6.615754   4.760951   4.762769   4.493512   4.491737
    23  H    7.350808   6.747562   6.732962   4.849759   4.870618
    24  H    8.901751   7.060197   7.075825   6.636198   6.619707
    25  H   10.950802   9.312932   9.325823   8.528917   8.515086
    26  C    9.927086   9.380214   9.368916   7.444854   7.459650
    27  C   11.849217  10.680009  10.683145   9.311504   9.308323
    28  F   12.301660  11.382723  11.380985   9.764413   9.766921
    29  F   12.533771  11.080210  11.268191  10.040051   9.828659
    30  F   12.386280  11.266745  11.091215   9.850927  10.048846
    31  F    9.064198   8.840381   8.822179   6.680280   6.704953
    32  F   10.850170  10.127283  10.317142   8.418663   8.185064
    33  F   10.677675  10.332379  10.121298   8.189897   8.450320
    34  O    5.877676   3.485247   3.439641   4.831302   4.863720
    35  O    7.567144   5.302883   5.273578   5.895400   5.921624
    36  C    7.156493   4.771289   4.728089   5.862187   5.896984
    37  C    8.270639   5.840275   5.783134   7.226638   7.272296
    38  C    9.347301   6.647174   6.922534   8.243040   8.012601
    39  H    7.991706   5.591381   5.518411   7.292193   7.347364
    40  H    8.820069   6.633564   6.324190   7.687142   7.943816
    41  H    9.049553   6.172233   6.723214   8.062512   7.608159
    42  H   10.192586   7.518211   7.744918   9.222375   9.032274
    43  H    9.807031   7.146475   7.416183   8.439439   8.202915
                   21         22         23         24         25
    21  H    0.000000
    22  H    2.278173   0.000000
    23  H    4.985855   3.920784   0.000000
    24  H    4.609741   2.339781   4.307721   0.000000
    25  H    6.894909   4.625603   4.933013   2.402013   0.000000
    26  C    7.519754   6.030683   2.658155   5.416236   4.744866
    27  C    8.416711   6.330536   4.752433   4.590562   2.635641
    28  F    9.238781   7.295135   4.992954   5.792918   3.999386
    29  F    8.870639   6.731380   5.561347   4.820674   2.705905
    30  F    8.868885   6.722852   5.560404   4.820485   2.705561
    31  F    7.251554   6.147743   2.287974   6.054106   5.839824
    32  F    8.366950   6.831197   3.632885   6.042101   5.091253
    33  F    8.364470   6.822002   3.631509   6.041106   5.090302
    34  O    2.072992   3.028132   6.667059   4.876503   7.275742
    35  O    3.098762   2.078104   5.953206   2.927405   5.252664
    36  C    2.992411   2.903060   6.809725   4.145233   6.475867
    37  C    4.409270   4.330817   8.247905   5.151284   7.309923
    38  C    5.302912   4.920069   8.762887   5.314897   7.268538
    39  H    4.619890   5.038616   8.923029   6.146393   8.367187
    40  H    4.999963   4.679625   8.509819   5.209618   7.218289
    41  H    5.135590   4.987545   8.738815   5.607441   7.615384
    42  H    6.314133   5.993290   9.844137   6.271046   8.098037
    43  H    5.496450   4.638016   8.329946   4.567616   6.333597
                   26         27         28         29         30
    26  C    0.000000
    27  C    3.150958   0.000000
    28  F    2.739177   1.377572   0.000000
    29  F    4.114912   1.383671   2.228433   0.000000
    30  F    4.114399   1.383679   2.228423   2.247232   0.000000
    31  F    1.384841   4.517729   4.093613   5.440431   5.439898
    32  F    1.383344   3.182378   2.509023   3.764860   4.389144
    33  F    1.383348   3.182206   2.509519   4.389459   3.763818
    34  O    8.998836   9.282044  10.304721   9.587490   9.553556
    35  O    7.843752   7.504490   8.661590   7.715436   7.666769
    36  C    8.885342   8.711110   9.845366   8.925787   8.875599
    37  C   10.206957   9.725799  10.938042   9.843992   9.773969
    38  C   10.541185   9.774781  11.037704   9.677030   9.881276
    39  H   11.028721  10.732693  11.913227  10.879341  10.807891
    40  H   10.336340   9.674682  10.913644   9.853383   9.565665
    41  H   10.605546  10.023436  11.240578   9.866827  10.275702
    42  H   11.574316  10.661044  11.954526  10.523485  10.689907
    43  H    9.894039   8.885864  10.180868   8.724660   8.963320
                   31         32         33         34         35
    31  F    0.000000
    32  F    2.228981   0.000000
    33  F    2.229024   2.267554   0.000000
    34  O    8.953220   9.806437   9.772162   0.000000
    35  O    8.123117   8.580788   8.535761   2.229011   0.000000
    36  C    9.047603   9.646946   9.599211   1.349051   1.223898
    37  C   10.456055  10.935505  10.870967   2.467302   2.364632
    38  C   10.902161  11.102032  11.281098   3.526081   2.963203
    39  H   11.175525  11.784490  11.717005   2.547796   3.258525
    40  H   10.660031  11.128519  10.871259   3.182338   2.694008
    41  H   10.890302  11.091283  11.458824   3.481596   3.292750
    42  H   11.971439  12.129999  12.274909   4.424969   3.984915
    43  H   10.373157  10.400779  10.602552   3.983776   2.745873
                   36         37         38         39         40
    36  C    0.000000
    37  C    1.500225   0.000000
    38  C    2.495309   1.525477   0.000000
    39  H    2.145496   1.111444   2.158424   0.000000
    40  H    2.140360   1.111049   2.166593   1.804083   0.000000
    41  H    2.756477   2.175874   1.111086   2.503097   3.093534
    42  H    3.453098   2.166566   1.110379   2.481982   2.494909
    43  H    2.763961   2.179106   1.111088   3.090050   2.513494
                   41         42         43
    41  H    0.000000
    42  H    1.805461   0.000000
    43  H    1.811338   1.803790   0.000000
 Stoichiometry    C15H17F6N2O3(1-)
 Framework group  C1[X(C15H17F6N2O3)]
 Deg. of freedom   123
 Full point group                 C1      NOp   1
 Largest Abelian subgroup         C1      NOp   1
 Largest concise Abelian subgroup C1      NOp   1
                         Standard orientation:                         
 ---------------------------------------------------------------------
 Center     Atomic      Atomic             Coordinates (Angstroms)
 Number     Number       Type             X           Y           Z
 ---------------------------------------------------------------------
      1          6           0       -6.033876   -3.963213    0.068741
      2          6           0       -5.315324   -2.617921    0.022981
      3          6           0       -3.793988   -2.800306    0.047536
      4          7           0       -3.110581   -1.517741    0.003555
      5          6           0       -1.748150   -1.434983    0.016593
      6          8           0       -1.095571   -2.464619    0.067946
      7          7           0       -1.139026   -0.205158   -0.024729
      8          6           0        0.277708    0.082781   -0.018870
      9          6           0        1.298630   -0.896923    0.001534
     10          6           0        0.672622    1.427289   -0.036169
     11          6           0        2.014111    1.789870   -0.032267
     12          6           0        3.035781    0.828784   -0.011674
     13          6           0        2.672779   -0.552721    0.005431
     14          1           0       -7.131943   -3.799411    0.049965
     15          1           0       -5.771628   -4.509710    0.999682
     16          1           0       -5.751498   -4.581837   -0.809705
     17          1           0       -5.630380   -2.011738    0.900160
     18          1           0       -5.610201   -2.084406   -0.906806
     19          1           0       -3.485621   -3.409290   -0.830895
     20          1           0       -3.506371   -3.336296    0.978971
     21          1           0       -3.734110   -0.563576   -0.042609
     22          1           0       -1.839632    0.701508   -0.066889
     23          1           0        1.058124   -1.938432    0.012386
     24          1           0       -0.060471    2.221026   -0.051787
     25          1           0        2.258840    2.845868   -0.045667
     26          6           0        3.702983   -1.673303    0.027104
     27          6           0        4.453455    1.386749   -0.010424
     28          9           0        5.450276    0.436139    0.009453
     29          9           0        4.619749    2.191210    1.103010
     30          9           0        4.634256    2.159403   -1.143951
     31          9           0        3.120140   -2.929445    0.040771
     32          9           0        4.483845   -1.570695    1.164366
     33          9           0        4.497678   -1.601712   -1.102934
     34          8           0       -4.824342    1.191405   -0.212100
     35          8           0       -2.974056    2.434051   -0.239788
     36          6           0       -4.196273    2.383449   -0.279189
     37          6           0       -4.998211    3.644677   -0.409093
     38          6           0       -4.753032    4.576072    0.773899
     39          1           0       -6.080426    3.395066   -0.451682
     40          1           0       -4.717420    4.160589   -1.352185
     41          1           0       -5.045265    4.077381    1.722803
     42          1           0       -5.360714    5.497589    0.653601
     43          1           0       -3.681051    4.863355    0.827199
 ---------------------------------------------------------------------
 Rotational constants (GHZ):      0.2496394      0.0854472      0.0656421
 General basis read from cards:  (6D, 7F)
 There are   528 symmetry adapted cartesian basis functions of A   symmetry.
 There are   528 symmetry adapted basis functions of A   symmetry.
   528 basis functions,   900 primitive gaussians,   528 cartesian basis functions
   100 alpha electrons      100 beta electrons
       nuclear repulsion energy      2404.5664813147 Hartrees.
 NAtoms=   43 NActive=   43 NUniq=   43 SFac= 1.00D+00 NAtFMM=   60 NAOKFM=F Big=F
 Integral buffers will be    131072 words long.
 Raffenetti 2 integral format.
 Two-electron integral symmetry is turned on.
 ------------------------------------------------------------------------------
 Polarizable Continuum Model (PCM)
 =================================
 Model                : PCM (using non-symmetric T matrix).
 Atomic radii         : SMD-Coulomb.
 Polarization charges : Total charges.
 Charge compensation  : None.
 Solution method      : On-the-fly selection.
 Cavity type          : VdW (van der Waals Surface) (Alpha=1.000).
 Cavity algorithm     : GePol (No added spheres)
                        Default sphere list used, NSphG=   43.
                        Lebedev-Laikov grids with approx.  5.0 points / Ang**2.
                        Smoothing algorithm: York/Karplus (Gamma=1.0000).
                        Polarization charges: spherical gaussians, with
                                              point-specific exponents (IZeta= 3).
                        Self-potential: point-specific (ISelfS= 7).
                        Self-field    : sphere-specific E.n sum rule (ISelfD= 2).
 1st derivatives      : Analytical E(r).r(x)/FMM algorithm (CHGder, D1EAlg=3).
                        Cavity 1st derivative terms included.
 Solvent              : n-Pentadecane, Eps=   2.033300 Eps(inf)=   2.049192
 ------------------------------------------------------------------------------
 ------------------------------------------------------------------------------
 Atomic radii for non-electrostatic terms: SMD-CDS.
 ------------------------------------------------------------------------------
 Nuclear repulsion after PCM non-electrostatic terms =     2404.5590518591 Hartrees.
 One-electron integrals computed using PRISM.
 NBasis=   528 RedAO= T EigKep=  1.15D-06  NBF=   528
 NBsUse=   526 1.00D-06 EigRej=  7.95D-07 NBFU=   526
 ExpMin= 4.38D-02 ExpMax= 7.00D+03 ExpMxC= 1.05D+03 IAcc=3 IRadAn=         5 AccDes= 0.00D+00
 Harris functional with IExCor= 1009 and IRadAn=       5 diagonalized for initial guess.
 HarFok:  IExCor= 1009 AccDes= 0.00D+00 IRadAn=         5 IDoV= 1 UseB2=F ITyADJ=14
 ICtDFT=  3500011 ScaDFX=  1.000000  1.000000  1.000000  1.000000
 FoFCou: FMM=F IPFlag=           0 FMFlag=      100000 FMFlg1=           0
         NFxFlg=           0 DoJE=T BraDBF=F KetDBF=T FulRan=T
         wScrn=  0.000000 ICntrl=     500 IOpCl=  0 I1Cent=   200000004 NGrid=           0
         NMat0=    1 NMatS0=      1 NMatT0=    0 NMatD0=    1 NMtDS0=    0 NMtDT0=    0
 Petite list used in FoFCou.
 Requested convergence on RMS density matrix=1.00D-08 within 128 cycles.
 Requested convergence on MAX density matrix=1.00D-06.
 Requested convergence on             energy=1.00D-06.
 No special actions if energy rises.
 Inv3:  Mode=1 IEnd=    33526947.
 Iteration    1 A*A^-1 deviation from unit magnitude is 7.55D-15 for   3332.
 Iteration    1 A*A^-1 deviation from orthogonality  is 3.05D-15 for   1331    774.
 Iteration    1 A^-1*A deviation from unit magnitude is 7.99D-15 for   3332.
 Iteration    1 A^-1*A deviation from orthogonality  is 2.19D-15 for   3325   3224.
 Error on total polarization charges =  0.02527
 SCF Done:  E(RM062X) =  -1515.70437102     A.U. after   16 cycles
            NFock= 16  Conv=0.50D-08     -V/T= 2.0090
 SMD-CDS (non-electrostatic) energy       (kcal/mol) =      -4.66
 (included in total energy above)

 **********************************************************************

            Population analysis using the SCF density.

 **********************************************************************

 Orbital symmetries:
       Occupied  (A) (A) (A) (A) (A) (A) (A) (A) (A) (A) (A) (A)
                 (A) (A) (A) (A) (A) (A) (A) (A) (A) (A) (A) (A)
                 (A) (A) (A) (A) (A) (A) (A) (A) (A) (A) (A) (A)
                 (A) (A) (A) (A) (A) (A) (A) (A) (A) (A) (A) (A)
                 (A) (A) (A) (A) (A) (A) (A) (A) (A) (A) (A) (A)
                 (A) (A) (A) (A) (A) (A) (A) (A) (A) (A) (A) (A)
                 (A) (A) (A) (A) (A) (A) (A) (A) (A) (A) (A) (A)
                 (A) (A) (A) (A) (A) (A) (A) (A) (A) (A) (A) (A)
                 (A) (A) (A) (A)
       Virtual   (A) (A) (A) (A) (A) (A) (A) (A) (A) (A) (A) (A)
                 (A) (A) (A) (A) (A) (A) (A) (A) (A) (A) (A) (A)
                 (A) (A) (A) (A) (A) (A) (A) (A) (A) (A) (A) (A)
                 (A) (A) (A) (A) (A) (A) (A) (A) (A) (A) (A) (A)
                 (A) (A) (A) (A) (A) (A) (A) (A) (A) (A) (A) (A)
                 (A) (A) (A) (A) (A) (A) (A) (A) (A) (A) (A) (A)
                 (A) (A) (A) (A) (A) (A) (A) (A) (A) (A) (A) (A)
                 (A) (A) (A) (A) (A) (A) (A) (A) (A) (A) (A) (A)
                 (A) (A) (A) (A) (A) (A) (A) (A) (A) (A) (A) (A)
                 (A) (A) (A) (A) (A) (A) (A) (A) (A) (A) (A) (A)
                 (A) (A) (A) (A) (A) (A) (A) (A) (A) (A) (A) (A)
                 (A) (A) (A) (A) (A) (A) (A) (A) (A) (A) (A) (A)
                 (A) (A) (A) (A) (A) (A) (A) (A) (A) (A) (A) (A)
                 (A) (A) (A) (A) (A) (A) (A) (A) (A) (A) (A) (A)
                 (A) (A) (A) (A) (A) (A) (A) (A) (A) (A) (A) (A)
                 (A) (A) (A) (A) (A) (A) (A) (A) (A) (A) (A) (A)
                 (A) (A) (A) (A) (A) (A) (A) (A) (A) (A) (A) (A)
                 (A) (A) (A) (A) (A) (A) (A) (A) (A) (A) (A) (A)
                 (A) (A) (A) (A) (A) (A) (A) (A) (A) (A) (A) (A)
                 (A) (A) (A) (A) (A) (A) (A) (A) (A) (A) (A) (A)
                 (A) (A) (A) (A) (A) (A) (A) (A) (A) (A) (A) (A)
                 (A) (A) (A) (A) (A) (A) (A) (A) (A) (A) (A) (A)
                 (A) (A) (A) (A) (A) (A) (A) (A) (A) (A) (A) (A)
                 (A) (A) (A) (A) (A) (A) (A) (A) (A) (A) (A) (A)
                 (A) (A) (A) (A) (A) (A) (A) (A) (A) (A) (A) (A)
                 (A) (A) (A) (A) (A) (A) (A) (A) (A) (A) (A) (A)
                 (A) (A) (A) (A) (A) (A) (A) (A) (A) (A) (A) (A)
                 (A) (A) (A) (A) (A) (A) (A) (A) (A) (A) (A) (A)
                 (A) (A) (A) (A) (A) (A) (A) (A) (A) (A) (A) (A)
                 (A) (A) (A) (A) (A) (A) (A) (A) (A) (A) (A) (A)
                 (A) (A) (A) (A) (A) (A) (A) (A) (A) (A) (A) (A)
                 (A) (A) (A) (A) (A) (A) (A) (A) (A) (A) (A) (A)
                 (A) (A) (A) (A) (A) (A) (A) (A) (A) (A) (A) (A)
                 (A) (A) (A) (A) (A) (A) (A) (A) (A) (A) (A) (A)
                 (A) (A) (A) (A) (A) (A) (A) (A) (A) (A) (A) (A)
                 (A) (A) (A) (A) (A) (A)
 The electronic state is 1-A.
 Alpha  occ. eigenvalues --  -25.27216 -25.27066 -25.27040 -25.27034 -25.26825
 Alpha  occ. eigenvalues --  -25.26824 -19.54440 -19.52552 -19.50228 -14.75063
 Alpha  occ. eigenvalues --  -14.71803 -10.79183 -10.79136 -10.61980 -10.58541
 Alpha  occ. eigenvalues --  -10.56942 -10.56512 -10.56051 -10.54153 -10.53240
 Alpha  occ. eigenvalues --  -10.52901 -10.52813 -10.49930 -10.49879 -10.48920
 Alpha  occ. eigenvalues --  -10.48467  -1.41489  -1.40868  -1.33602  -1.33309
 Alpha  occ. eigenvalues --   -1.33202  -1.32850  -1.11740  -1.07830  -0.98455
 Alpha  occ. eigenvalues --   -0.95432  -0.94600  -0.93613  -0.85610  -0.84929
 Alpha  occ. eigenvalues --   -0.82533  -0.80627  -0.78264  -0.76320  -0.72354
 Alpha  occ. eigenvalues --   -0.69056  -0.68705  -0.66240  -0.65132  -0.64899
 Alpha  occ. eigenvalues --   -0.64590  -0.64291  -0.63218  -0.62436  -0.60252
 Alpha  occ. eigenvalues --   -0.58179  -0.55546  -0.53963  -0.53780  -0.53484
 Alpha  occ. eigenvalues --   -0.53158  -0.52876  -0.51752  -0.51015  -0.50231
 Alpha  occ. eigenvalues --   -0.50147  -0.50081  -0.49641  -0.48550  -0.48463
 Alpha  occ. eigenvalues --   -0.47831  -0.47455  -0.47264  -0.46445  -0.46406
 Alpha  occ. eigenvalues --   -0.45753  -0.45220  -0.44632  -0.43388  -0.42514
 Alpha  occ. eigenvalues --   -0.41767  -0.40582  -0.40373  -0.40240  -0.39530
 Alpha  occ. eigenvalues --   -0.38861  -0.37774  -0.37186  -0.35014  -0.34943
 Alpha  occ. eigenvalues --   -0.34729  -0.33932  -0.33086  -0.29001  -0.28185
 Alpha  occ. eigenvalues --   -0.25540  -0.24582  -0.23295  -0.22867  -0.22161
 Alpha virt. eigenvalues --    0.02470   0.04167   0.05817   0.06880   0.06904
 Alpha virt. eigenvalues --    0.07201   0.07757   0.08165   0.08302   0.08755
 Alpha virt. eigenvalues --    0.09026   0.09430   0.09646   0.09980   0.10692
 Alpha virt. eigenvalues --    0.10856   0.11077   0.11238   0.11709   0.12414
 Alpha virt. eigenvalues --    0.13166   0.13320   0.13426   0.13604   0.13984
 Alpha virt. eigenvalues --    0.14569   0.14921   0.15033   0.15684   0.15730
 Alpha virt. eigenvalues --    0.16119   0.16547   0.16651   0.16989   0.17090
 Alpha virt. eigenvalues --    0.17557   0.17684   0.17991   0.18552   0.18934
 Alpha virt. eigenvalues --    0.19220   0.19940   0.20393   0.20460   0.20617
 Alpha virt. eigenvalues --    0.21180   0.21469   0.21726   0.22660   0.22983
 Alpha virt. eigenvalues --    0.23548   0.23643   0.23973   0.24180   0.24559
 Alpha virt. eigenvalues --    0.24817   0.25696   0.25829   0.25920   0.26906
 Alpha virt. eigenvalues --    0.27179   0.27242   0.27518   0.27720   0.28491
 Alpha virt. eigenvalues --    0.28741   0.29027   0.29462   0.29488   0.29928
 Alpha virt. eigenvalues --    0.29955   0.30355   0.30554   0.31139   0.31549
 Alpha virt. eigenvalues --    0.31731   0.32051   0.32398   0.32971   0.33146
 Alpha virt. eigenvalues --    0.33622   0.33867   0.34316   0.34621   0.34876
 Alpha virt. eigenvalues --    0.35093   0.35414   0.35782   0.36030   0.36854
 Alpha virt. eigenvalues --    0.37117   0.37144   0.37578   0.38165   0.38227
 Alpha virt. eigenvalues --    0.39093   0.39122   0.39257   0.39959   0.40121
 Alpha virt. eigenvalues --    0.40338   0.40503   0.40914   0.41113   0.41434
 Alpha virt. eigenvalues --    0.41918   0.42315   0.42661   0.43025   0.43092
 Alpha virt. eigenvalues --    0.43578   0.44051   0.44414   0.44898   0.45046
 Alpha virt. eigenvalues --    0.45080   0.45815   0.46032   0.46251   0.47323
 Alpha virt. eigenvalues --    0.47718   0.47933   0.48031   0.48903   0.49328
 Alpha virt. eigenvalues --    0.49812   0.50322   0.50458   0.51196   0.51329
 Alpha virt. eigenvalues --    0.51601   0.53452   0.54163   0.54350   0.55373
 Alpha virt. eigenvalues --    0.55903   0.56554   0.57266   0.58361   0.59217
 Alpha virt. eigenvalues --    0.60045   0.60846   0.61219   0.62738   0.64443
 Alpha virt. eigenvalues --    0.66096   0.67117   0.68754   0.71644   0.74316
 Alpha virt. eigenvalues --    0.75045   0.75207   0.75438   0.77209   0.77930
 Alpha virt. eigenvalues --    0.78485   0.78761   0.79403   0.80856   0.81299
 Alpha virt. eigenvalues --    0.81930   0.82110   0.82795   0.83951   0.84482
 Alpha virt. eigenvalues --    0.85856   0.86320   0.86434   0.87578   0.87796
 Alpha virt. eigenvalues --    0.88156   0.89390   0.90245   0.90411   0.92562
 Alpha virt. eigenvalues --    0.93349   0.93838   0.94614   0.95044   0.95755
 Alpha virt. eigenvalues --    0.96263   0.97106   0.98319   0.99517   1.01401
 Alpha virt. eigenvalues --    1.02107   1.03469   1.03716   1.04772   1.05236
 Alpha virt. eigenvalues --    1.06243   1.07262   1.08236   1.09950   1.11104
 Alpha virt. eigenvalues --    1.11845   1.11960   1.12191   1.15350   1.16453
 Alpha virt. eigenvalues --    1.16711   1.18217   1.19456   1.20276   1.20888
 Alpha virt. eigenvalues --    1.21489   1.22162   1.22647   1.23101   1.23846
 Alpha virt. eigenvalues --    1.24405   1.24826   1.25837   1.26420   1.29122
 Alpha virt. eigenvalues --    1.29554   1.29930   1.33102   1.33442   1.35577
 Alpha virt. eigenvalues --    1.35979   1.37209   1.37440   1.38130   1.40277
 Alpha virt. eigenvalues --    1.41711   1.42122   1.45390   1.45759   1.46055
 Alpha virt. eigenvalues --    1.47454   1.47842   1.48935   1.50736   1.51447
 Alpha virt. eigenvalues --    1.53015   1.53314   1.53574   1.54527   1.55128
 Alpha virt. eigenvalues --    1.56156   1.56499   1.56605   1.56927   1.59416
 Alpha virt. eigenvalues --    1.62758   1.63405   1.63827   1.64350   1.66546
 Alpha virt. eigenvalues --    1.67999   1.68127   1.69636   1.69812   1.70225
 Alpha virt. eigenvalues --    1.71273   1.71809   1.72112   1.72893   1.73659
 Alpha virt. eigenvalues --    1.76514   1.76844   1.76917   1.77783   1.78434
 Alpha virt. eigenvalues --    1.78646   1.79516   1.80031   1.80413   1.80964
 Alpha virt. eigenvalues --    1.81578   1.82716   1.83558   1.84480   1.84886
 Alpha virt. eigenvalues --    1.85876   1.86075   1.86794   1.88640   1.89890
 Alpha virt. eigenvalues --    1.90783   1.90882   1.91062   1.91662   1.92471
 Alpha virt. eigenvalues --    1.92600   1.92678   1.93422   1.93480   1.93999
 Alpha virt. eigenvalues --    1.94746   1.94894   1.95738   1.96243   1.97836
 Alpha virt. eigenvalues --    1.98315   1.98880   1.99821   2.00230   2.00329
 Alpha virt. eigenvalues --    2.01422   2.01542   2.02654   2.03690   2.04331
 Alpha virt. eigenvalues --    2.04710   2.05487   2.06411   2.08056   2.08091
 Alpha virt. eigenvalues --    2.08302   2.09022   2.09047   2.10624   2.10914
 Alpha virt. eigenvalues --    2.11121   2.11439   2.11640   2.11944   2.13079
 Alpha virt. eigenvalues --    2.13309   2.13723   2.14129   2.15218   2.17279
 Alpha virt. eigenvalues --    2.18998   2.19167   2.20312   2.21211   2.22177
 Alpha virt. eigenvalues --    2.23499   2.23912   2.24305   2.26124   2.27709
 Alpha virt. eigenvalues --    2.29157   2.29437   2.30612   2.32682   2.32973
 Alpha virt. eigenvalues --    2.33805   2.34422   2.34851   2.37171   2.38129
 Alpha virt. eigenvalues --    2.39603   2.41534   2.42294   2.42765   2.43735
 Alpha virt. eigenvalues --    2.44072   2.45453   2.46357   2.46619   2.48175
 Alpha virt. eigenvalues --    2.49437   2.54637   2.55460   2.57639   2.59604
 Alpha virt. eigenvalues --    2.59951   2.61992   2.67251   2.67557   2.68331
 Alpha virt. eigenvalues --    2.69054   2.71515   2.72418   2.72839   2.76641
 Alpha virt. eigenvalues --    2.78722   2.79994   2.80753   2.81109   2.81992
 Alpha virt. eigenvalues --    2.83644   2.84820   2.85874   2.88452   2.90237
 Alpha virt. eigenvalues --    2.92335   2.92973   2.94647   2.98920   3.05812
 Alpha virt. eigenvalues --    3.08540   3.11345   3.17074   3.18304   3.19582
 Alpha virt. eigenvalues --    3.21626   3.23545   3.26211   3.30246   3.32911
 Alpha virt. eigenvalues --    3.33886   3.34283   3.39515   3.43008   3.46582
 Alpha virt. eigenvalues --    4.26054   4.30561   4.31819   4.33648   4.37349
 Alpha virt. eigenvalues --    4.38483   4.45104   4.46098   4.48984   4.50522
 Alpha virt. eigenvalues --    4.52824   4.53930   4.60617   4.62545   4.65032
 Alpha virt. eigenvalues --    4.67987   4.70140   4.78703   4.82544   4.86583
 Alpha virt. eigenvalues --    5.45128   5.91665   6.19150   6.41762   6.91926
 Alpha virt. eigenvalues --    7.18313
          Condensed to atoms (all electrons):
               1          2          3          4          5          6
     1  C    5.850992  -0.216525   0.042349  -0.021583  -0.069882  -0.001435
     2  C   -0.216525   6.368586  -0.499161  -0.067800   0.191829   0.022780
     3  C    0.042349  -0.499161   7.289142   0.351714  -0.860619  -0.111705
     4  N   -0.021583  -0.067800   0.351714   7.729326   0.486963  -0.186262
     5  C   -0.069882   0.191829  -0.860619   0.486963   6.832663   0.620219
     6  O   -0.001435   0.022780  -0.111705  -0.186262   0.620219   8.336368
     7  N   -0.005525   0.016040  -0.220148  -0.375506   0.212666  -0.073361
     8  C   -0.010525   0.031511  -0.414788  -0.212865  -0.673958  -0.403900
     9  C    0.001228  -0.022352   0.007100   0.048224  -0.074904   0.448057
    10  C   -0.003433   0.013381  -0.130305  -0.105551  -0.619236  -0.109193
    11  C   -0.000438   0.001271  -0.015111  -0.040166  -0.088133  -0.011014
    12  C   -0.000600   0.002288  -0.068342  -0.038822  -0.872554  -0.008309
    13  C    0.000985  -0.005015   0.025676   0.059834   0.302994   0.089521
    14  H    0.448896  -0.124480   0.028620   0.000305  -0.002469   0.000005
    15  H    0.422555  -0.070688  -0.008003   0.000036  -0.000191  -0.000042
    16  H    0.420922  -0.069288  -0.007211   0.000101  -0.000723  -0.000045
    17  H   -0.032214   0.420283  -0.069688   0.005547  -0.008738  -0.000190
    18  H   -0.032163   0.422352  -0.074541   0.005413  -0.005312  -0.000170
    19  H   -0.005898  -0.052721   0.448053  -0.056228  -0.027472   0.001111
    20  H   -0.006028  -0.051935   0.449570  -0.056058  -0.029074   0.001148
    21  H    0.001238   0.003028  -0.062337   0.170288   0.028662   0.003843
    22  H    0.000216   0.000415   0.005657   0.032704  -0.030941   0.003508
    23  H    0.000013  -0.000050   0.003266   0.000658   0.023135  -0.001542
    24  H   -0.000001   0.000018  -0.000390   0.000607  -0.010530   0.000062
    25  H    0.000000  -0.000000   0.000047   0.000015   0.006311  -0.000002
    26  C    0.000171  -0.000926   0.017125   0.013813   0.215274   0.008334
    27  C   -0.000028   0.000091  -0.004657  -0.002047  -0.171143   0.000913
    28  F    0.000000   0.000000   0.000005   0.000001   0.000858   0.000003
    29  F   -0.000000  -0.000000  -0.000001   0.000000  -0.000090  -0.000000
    30  F   -0.000000  -0.000000  -0.000002   0.000000  -0.000164  -0.000000
    31  F    0.000000   0.000002   0.000150  -0.000010   0.002507  -0.000645
    32  F    0.000000  -0.000001   0.000006   0.000005   0.000826   0.000015
    33  F    0.000000  -0.000001  -0.000001   0.000005   0.000359   0.000004
    34  O    0.007356   0.017348  -0.014516  -0.036861   0.001032  -0.000533
    35  O   -0.000336  -0.002101   0.004705   0.007977   0.014497  -0.000136
    36  C   -0.003378  -0.005647   0.003500  -0.001128  -0.006246  -0.001062
    37  C    0.003253   0.003209   0.012094  -0.013006  -0.019592  -0.000668
    38  C   -0.000156  -0.000695   0.000447   0.000256  -0.001007  -0.000020
    39  H    0.000006   0.000013  -0.000001  -0.000165   0.000033  -0.000000
    40  H   -0.000004  -0.000041  -0.000007   0.000071  -0.000089   0.000000
    41  H   -0.000001  -0.000004  -0.000021   0.000027   0.000003   0.000000
    42  H    0.000000   0.000004  -0.000000   0.000000   0.000008   0.000000
    43  H    0.000001   0.000011  -0.000000  -0.000015   0.000026  -0.000000
               7          8          9         10         11         12
     1  C   -0.005525  -0.010525   0.001228  -0.003433  -0.000438  -0.000600
     2  C    0.016040   0.031511  -0.022352   0.013381   0.001271   0.002288
     3  C   -0.220148  -0.414788   0.007100  -0.130305  -0.015111  -0.068342
     4  N   -0.375506  -0.212865   0.048224  -0.105551  -0.040166  -0.038822
     5  C    0.212666  -0.673958  -0.074904  -0.619236  -0.088133  -0.872554
     6  O   -0.073361  -0.403900   0.448057  -0.109193  -0.011014  -0.008309
     7  N    7.884460  -0.064167   0.095628  -0.047094  -0.040681  -0.096776
     8  C   -0.064167  23.176946  -5.724250   0.662577  -0.577831   0.645374
     9  C    0.095628  -5.724250  17.416238  -4.699866  -3.292717  -4.825461
    10  C   -0.047094   0.662577  -4.699866  18.762741  -2.731174   0.257428
    11  C   -0.040681  -0.577831  -3.292717  -2.731174  16.233296  -0.211805
    12  C   -0.096776   0.645374  -4.825461   0.257428  -0.211805  22.027842
    13  C    0.193214  -6.671453   6.039489  -3.719710  -3.874699  -6.124205
    14  H    0.000007  -0.000038  -0.000002  -0.000001   0.000000  -0.000000
    15  H    0.000007   0.000012  -0.000029   0.000001   0.000000  -0.000000
    16  H    0.000006   0.000013  -0.000046   0.000005   0.000000  -0.000000
    17  H   -0.000243  -0.000704  -0.000334   0.000190   0.000009  -0.000003
    18  H   -0.000126  -0.000718  -0.000085   0.000096   0.000004  -0.000002
    19  H   -0.000289  -0.000665  -0.001355   0.000288   0.000004   0.000016
    20  H   -0.000150   0.000185  -0.002980   0.000417   0.000041  -0.000037
    21  H    0.032030   0.006136  -0.002866   0.005373   0.000533   0.000483
    22  H    0.160851   0.011677   0.054509  -0.067674  -0.002549  -0.002318
    23  H   -0.012741  -0.066237   0.420525  -0.028638  -0.013137   0.004476
    24  H   -0.004235  -0.082299  -0.004795   0.289099   0.080213  -0.012797
    25  H    0.000734   0.050717   0.011348  -0.180760   0.343883   0.059067
    26  C    0.046003  -4.061859   0.966378   0.662738  -0.023633  -1.122761
    27  C   -0.015419   0.252976  -0.778006  -2.523920   0.378941  -2.720558
    28  F    0.000071   0.021516   0.062496   0.011113   0.076443   0.013618
    29  F    0.000005   0.007743  -0.010054   0.105737  -0.064848   0.153581
    30  F    0.000003   0.006887  -0.011062   0.113431  -0.068526   0.147199
    31  F   -0.000994   0.209050   0.091587   0.004113   0.016813   0.009034
    32  F    0.000214   0.041821   0.015747  -0.012487   0.002431  -0.153464
    33  F    0.000215   0.037341   0.009406  -0.012633   0.003304  -0.152115
    34  O    0.013498  -0.007740  -0.002265  -0.003107  -0.004130   0.000921
    35  O   -0.006284  -0.225927  -0.014273   0.162122   0.073189  -0.004215
    36  C   -0.018448   0.089470  -0.001661  -0.046271  -0.039686  -0.000581
    37  C   -0.003379  -0.027273  -0.023553   0.026726   0.005031   0.003591
    38  C   -0.000012  -0.004598  -0.000317   0.003109   0.001995  -0.000325
    39  H    0.000141  -0.000598  -0.000048   0.000457   0.000020   0.000005
    40  H   -0.000053  -0.000479  -0.000091   0.000606   0.000184   0.000006
    41  H    0.000000  -0.000100  -0.000024   0.000131   0.000042   0.000002
    42  H   -0.000005   0.000059   0.000004  -0.000070  -0.000007  -0.000000
    43  H    0.000108  -0.000386  -0.000029   0.000487  -0.000282  -0.000013
              13         14         15         16         17         18
     1  C    0.000985   0.448896   0.422555   0.420922  -0.032214  -0.032163
     2  C   -0.005015  -0.124480  -0.070688  -0.069288   0.420283   0.422352
     3  C    0.025676   0.028620  -0.008003  -0.007211  -0.069688  -0.074541
     4  N    0.059834   0.000305   0.000036   0.000101   0.005547   0.005413
     5  C    0.302994  -0.002469  -0.000191  -0.000723  -0.008738  -0.005312
     6  O    0.089521   0.000005  -0.000042  -0.000045  -0.000190  -0.000170
     7  N    0.193214   0.000007   0.000007   0.000006  -0.000243  -0.000126
     8  C   -6.671453  -0.000038   0.000012   0.000013  -0.000704  -0.000718
     9  C    6.039489  -0.000002  -0.000029  -0.000046  -0.000334  -0.000085
    10  C   -3.719710  -0.000001   0.000001   0.000005   0.000190   0.000096
    11  C   -3.874699   0.000000   0.000000   0.000000   0.000009   0.000004
    12  C   -6.124205  -0.000000  -0.000000  -0.000000  -0.000003  -0.000002
    13  C   22.319105  -0.000000   0.000001  -0.000000  -0.000007   0.000000
    14  H   -0.000000   0.498433  -0.025332  -0.025247  -0.003240  -0.003230
    15  H    0.000001  -0.025332   0.504166  -0.029901  -0.004649   0.003877
    16  H   -0.000000  -0.025247  -0.029901   0.503730   0.003895  -0.004627
    17  H   -0.000007  -0.003240  -0.004649   0.003895   0.487587  -0.028268
    18  H    0.000000  -0.003230   0.003877  -0.004627  -0.028268   0.484739
    19  H   -0.000044  -0.000065  -0.000348   0.002948   0.003947  -0.005333
    20  H   -0.000271  -0.000066   0.002993  -0.000358  -0.005403   0.003940
    21  H   -0.001294  -0.000001  -0.000000  -0.000000   0.000595   0.000617
    22  H    0.013708  -0.000000  -0.000000  -0.000000   0.000002   0.000002
    23  H   -0.010242   0.000000  -0.000000   0.000000  -0.000000  -0.000000
    24  H    0.034721  -0.000000  -0.000000  -0.000000   0.000000   0.000000
    25  H    0.073207  -0.000000   0.000000   0.000000  -0.000000   0.000000
    26  C   -2.284141   0.000000   0.000000   0.000000  -0.000000  -0.000000
    27  C    0.667543  -0.000000  -0.000000  -0.000000  -0.000000  -0.000000
    28  F   -0.126356  -0.000000  -0.000000  -0.000000  -0.000000  -0.000000
    29  F   -0.087527  -0.000000  -0.000000  -0.000000  -0.000000  -0.000000
    30  F   -0.086581  -0.000000  -0.000000  -0.000000  -0.000000   0.000000
    31  F   -0.333682   0.000000   0.000000  -0.000000  -0.000000   0.000000
    32  F    0.219117   0.000000   0.000000   0.000000   0.000000   0.000000
    33  F    0.221588   0.000000   0.000000   0.000000   0.000000   0.000000
    34  O   -0.001277  -0.000020  -0.000006  -0.000004  -0.001049  -0.001103
    35  O    0.008135  -0.000000   0.000000   0.000000  -0.000006  -0.000009
    36  C   -0.003008  -0.000032  -0.000007   0.000003  -0.000072  -0.000340
    37  C   -0.006587   0.000016  -0.000000  -0.000001   0.000135   0.000099
    38  C    0.000211   0.000000   0.000000  -0.000000   0.000014   0.000011
    39  H   -0.000006  -0.000000   0.000000  -0.000000   0.000000   0.000000
    40  H   -0.000006  -0.000000   0.000000   0.000000   0.000000  -0.000000
    41  H   -0.000002   0.000000   0.000000   0.000000  -0.000000  -0.000000
    42  H    0.000000   0.000000  -0.000000  -0.000000  -0.000000  -0.000000
    43  H   -0.000015  -0.000000   0.000000  -0.000000  -0.000000   0.000000
              19         20         21         22         23         24
     1  C   -0.005898  -0.006028   0.001238   0.000216   0.000013  -0.000001
     2  C   -0.052721  -0.051935   0.003028   0.000415  -0.000050   0.000018
     3  C    0.448053   0.449570  -0.062337   0.005657   0.003266  -0.000390
     4  N   -0.056228  -0.056058   0.170288   0.032704   0.000658   0.000607
     5  C   -0.027472  -0.029074   0.028662  -0.030941   0.023135  -0.010530
     6  O    0.001111   0.001148   0.003843   0.003508  -0.001542   0.000062
     7  N   -0.000289  -0.000150   0.032030   0.160851  -0.012741  -0.004235
     8  C   -0.000665   0.000185   0.006136   0.011677  -0.066237  -0.082299
     9  C   -0.001355  -0.002980  -0.002866   0.054509   0.420525  -0.004795
    10  C    0.000288   0.000417   0.005373  -0.067674  -0.028638   0.289099
    11  C    0.000004   0.000041   0.000533  -0.002549  -0.013137   0.080213
    12  C    0.000016  -0.000037   0.000483  -0.002318   0.004476  -0.012797
    13  C   -0.000044  -0.000271  -0.001294   0.013708  -0.010242   0.034721
    14  H   -0.000065  -0.000066  -0.000001  -0.000000   0.000000  -0.000000
    15  H   -0.000348   0.002993  -0.000000  -0.000000  -0.000000  -0.000000
    16  H    0.002948  -0.000358  -0.000000  -0.000000   0.000000  -0.000000
    17  H    0.003947  -0.005403   0.000595   0.000002  -0.000000   0.000000
    18  H   -0.005333   0.003940   0.000617   0.000002  -0.000000   0.000000
    19  H    0.521108  -0.041988   0.001632   0.000005  -0.000001   0.000000
    20  H   -0.041988   0.521792   0.001623   0.000005  -0.000001   0.000000
    21  H    0.001632   0.001623   0.256456   0.004303  -0.000000   0.000005
    22  H    0.000005   0.000005   0.004303   0.259803  -0.000080   0.004732
    23  H   -0.000001  -0.000001  -0.000000  -0.000080   0.402472  -0.000101
    24  H    0.000000   0.000000   0.000005   0.004732  -0.000101   0.432977
    25  H   -0.000000  -0.000000  -0.000000  -0.000005   0.000012  -0.003619
    26  C   -0.000015  -0.000012  -0.000117   0.001163  -0.036738   0.005820
    27  C   -0.000000  -0.000001  -0.000000   0.000390   0.005237   0.007466
    28  F   -0.000000  -0.000000  -0.000000   0.000000   0.000032   0.000012
    29  F    0.000000  -0.000000   0.000000   0.000000   0.000011   0.000009
    30  F   -0.000000   0.000000  -0.000000   0.000000   0.000011   0.000008
    31  F   -0.000000  -0.000000   0.000000  -0.000001   0.008338  -0.000000
    32  F   -0.000000   0.000000  -0.000000   0.000000  -0.000109   0.000000
    33  F    0.000000  -0.000000  -0.000000   0.000000  -0.000107   0.000000
    34  O   -0.000061  -0.000060   0.054585   0.002310   0.000001   0.000018
    35  O   -0.000002  -0.000001  -0.000979   0.045997   0.000005  -0.002105
    36  C    0.000280   0.000250  -0.006355  -0.001427  -0.000062  -0.000368
    37  C    0.000033   0.000020   0.006756   0.005105  -0.000005   0.000693
    38  C    0.000001  -0.000001  -0.000377  -0.000261  -0.000000  -0.000011
    39  H   -0.000000  -0.000000  -0.000003  -0.000009  -0.000000   0.000000
    40  H    0.000000   0.000000  -0.000006  -0.000004   0.000000  -0.000000
    41  H    0.000000   0.000000  -0.000002  -0.000002   0.000000  -0.000000
    42  H    0.000000   0.000000   0.000000   0.000000   0.000000   0.000000
    43  H   -0.000000  -0.000000   0.000000  -0.000007  -0.000000   0.000001
              25         26         27         28         29         30
     1  C    0.000000   0.000171  -0.000028   0.000000  -0.000000  -0.000000
     2  C   -0.000000  -0.000926   0.000091   0.000000  -0.000000  -0.000000
     3  C    0.000047   0.017125  -0.004657   0.000005  -0.000001  -0.000002
     4  N    0.000015   0.013813  -0.002047   0.000001   0.000000   0.000000
     5  C    0.006311   0.215274  -0.171143   0.000858  -0.000090  -0.000164
     6  O   -0.000002   0.008334   0.000913   0.000003  -0.000000  -0.000000
     7  N    0.000734   0.046003  -0.015419   0.000071   0.000005   0.000003
     8  C    0.050717  -4.061859   0.252976   0.021516   0.007743   0.006887
     9  C    0.011348   0.966378  -0.778006   0.062496  -0.010054  -0.011062
    10  C   -0.180760   0.662738  -2.523920   0.011113   0.105737   0.113431
    11  C    0.343883  -0.023633   0.378941   0.076443  -0.064848  -0.068526
    12  C    0.059067  -1.122761  -2.720558   0.013618   0.153581   0.147199
    13  C    0.073207  -2.284141   0.667543  -0.126356  -0.087527  -0.086581
    14  H   -0.000000   0.000000  -0.000000  -0.000000  -0.000000  -0.000000
    15  H    0.000000   0.000000  -0.000000  -0.000000  -0.000000  -0.000000
    16  H    0.000000   0.000000  -0.000000  -0.000000  -0.000000  -0.000000
    17  H   -0.000000  -0.000000  -0.000000  -0.000000  -0.000000  -0.000000
    18  H    0.000000  -0.000000  -0.000000  -0.000000  -0.000000   0.000000
    19  H   -0.000000  -0.000015  -0.000000  -0.000000   0.000000  -0.000000
    20  H   -0.000000  -0.000012  -0.000001  -0.000000  -0.000000   0.000000
    21  H   -0.000000  -0.000117  -0.000000  -0.000000   0.000000  -0.000000
    22  H   -0.000005   0.001163   0.000390   0.000000   0.000000   0.000000
    23  H    0.000012  -0.036738   0.005237   0.000032   0.000011   0.000011
    24  H   -0.003619   0.005820   0.007466   0.000012   0.000009   0.000008
    25  H    0.444972   0.004186  -0.065198   0.000575  -0.000142  -0.000107
    26  C    0.004186  12.963961  -3.241634   0.195578   0.024796   0.025299
    27  C   -0.065198  -3.241634  12.675691  -0.137422  -0.002179   0.000597
    28  F    0.000575   0.195578  -0.137422   9.300580  -0.034400  -0.034464
    29  F   -0.000142   0.024796  -0.002179  -0.034400   9.233532  -0.048756
    30  F   -0.000107   0.025299   0.000597  -0.034464  -0.048756   9.233103
    31  F    0.000008   0.107103   0.015615   0.000404   0.000013   0.000013
    32  F   -0.000002  -0.042833   0.067375  -0.012789  -0.000895   0.000218
    33  F   -0.000001  -0.042466   0.073854  -0.012609   0.000222  -0.000885
    34  O    0.000000  -0.000108  -0.000023  -0.000000  -0.000000  -0.000000
    35  O   -0.000009   0.000821  -0.000837  -0.000000   0.000000   0.000000
    36  C   -0.000036  -0.001203  -0.000724   0.000000   0.000002   0.000002
    37  C   -0.000001  -0.000452   0.000158   0.000000   0.000000   0.000000
    38  C    0.000000   0.000024  -0.000035  -0.000000  -0.000000  -0.000000
    39  H   -0.000000  -0.000000   0.000000   0.000000  -0.000000   0.000000
    40  H   -0.000000  -0.000000   0.000000   0.000000   0.000000   0.000000
    41  H   -0.000000  -0.000000   0.000000   0.000000   0.000000   0.000000
    42  H   -0.000000   0.000000  -0.000000  -0.000000   0.000000  -0.000000
    43  H   -0.000000  -0.000000  -0.000000  -0.000000  -0.000000   0.000000
              31         32         33         34         35         36
     1  C    0.000000   0.000000   0.000000   0.007356  -0.000336  -0.003378
     2  C    0.000002  -0.000001  -0.000001   0.017348  -0.002101  -0.005647
     3  C    0.000150   0.000006  -0.000001  -0.014516   0.004705   0.003500
     4  N   -0.000010   0.000005   0.000005  -0.036861   0.007977  -0.001128
     5  C    0.002507   0.000826   0.000359   0.001032   0.014497  -0.006246
     6  O   -0.000645   0.000015   0.000004  -0.000533  -0.000136  -0.001062
     7  N   -0.000994   0.000214   0.000215   0.013498  -0.006284  -0.018448
     8  C    0.209050   0.041821   0.037341  -0.007740  -0.225927   0.089470
     9  C    0.091587   0.015747   0.009406  -0.002265  -0.014273  -0.001661
    10  C    0.004113  -0.012487  -0.012633  -0.003107   0.162122  -0.046271
    11  C    0.016813   0.002431   0.003304  -0.004130   0.073189  -0.039686
    12  C    0.009034  -0.153464  -0.152115   0.000921  -0.004215  -0.000581
    13  C   -0.333682   0.219117   0.221588  -0.001277   0.008135  -0.003008
    14  H    0.000000   0.000000   0.000000  -0.000020  -0.000000  -0.000032
    15  H    0.000000   0.000000   0.000000  -0.000006   0.000000  -0.000007
[...]
 3,-0.00000614,0.00001613,0.00002225,-0.00001669,-0.00000532,-0.0000029
 1,-0.00000444,0.00000523,-0.00000747,-0.00000223,-0.00001382,-0.000012
 46,0.00000043,-0.00000381,-0.00000006,0.00000024,-0.00000268,0.0000016
 7,-0.00000203,-0.00000146,-0.00000054,0.00000015,0.00000767,0.00000245
 ,0.00000075,0.00001156,0.00000590,-0.00000248,-0.00000040,-0.00000065,
 0.00000182,-0.00000035,0.00000217,-0.00000505,-0.00002562,-0.00016980,
 -0.00002096,-0.00002415,0.00030308,-0.00003993,-0.00000505,-0.00000173
 ,0.00000329,0.00000712,0.00002761,0.00002044,0.00000700,0.00000566,0.0
 0000673,-0.00000218,0.00002897,0.00001823,0.00000319,0.00002134,0.0000
 2029,-0.00000560,-0.00001199,-0.00001040,0.00000030,-0.00000354,-0.000
 00581,0.00000135,-0.00000825,-0.00000350,0.00000380,-0.00000943,-0.000
 00138,0.00000083,-0.00000598,-0.00000353,-0.00000244,-0.00001123,-0.00
 001257,0.00026342,0.00176579,-0.00086644,0.00047948,-0.00204819,-0.000
 58761,-0.00390338,-0.00097201,0.00288294,-0.11897912,-0.02354331,0.116
 93271,-0.01572727,-0.00499238,0.02504340,0.00929615,0.00381410,-0.0148
 1734,0.13161061,0.00000220,0.00000495,-0.00000260,0.00001055,-0.000018
 57,0.00001608,-0.00005581,0.00003462,0.00000691,0.00007525,-0.00001177
 ,0.00004092,-0.00027457,0.00011050,0.00002786,0.00007895,-0.00015573,-
 0.00002096,-0.00004881,-0.00069729,0.00014568,0.00027912,0.00001489,0.
 00000696,-0.00006065,-0.00004431,-0.00000549,-0.00008717,0.00008204,-0
 .00000327,0.00004081,-0.00000755,0.00000154,-0.00006424,-0.00002253,-0
 .00000508,0.00001305,-0.00002257,0.00000034,0.00000704,-0.00000035,0.0
 0000298,-0.00000091,0.00000168,-0.00000280,0.00000212,-0.00000540,-0.0
 0000022,-0.00000564,0.00000303,-0.00000985,-0.00000450,0.00000300,0.00
 000157,0.00000808,-0.00001341,-0.00000264,0.00001485,-0.00000628,0.000
 00007,-0.00004032,0.00011448,-0.00014051,0.00000005,0.00109508,-0.0003
 1945,0.00000411,0.00000396,0.00000243,0.00008854,0.00000609,0.00000292
 ,-0.00000755,-0.00000084,0.00000197,0.00001940,0.00005664,0.00001055,0
 .00009015,0.00000461,0.00000365,-0.00002274,-0.00001424,-0.00000832,-0
 .00002720,-0.00000539,0.00001337,-0.00002546,0.00001279,-0.00000568,-0
 .00000148,-0.00001556,-0.00000035,-0.00001345,-0.00001606,0.00000591,-
 0.00000791,-0.00001957,-0.00001573,0.00134295,-0.00010758,-0.00403857,
 -0.00167255,-0.00654236,-0.00326783,-0.01733448,-0.00325397,0.03192549
 ,-0.02407033,-0.05383324,0.04360468,0.00887464,0.00211628,-0.01391720,
 0.00728991,0.00230697,-0.01143213,0.02376808,0.05912522,0.00000163,0.0
 0000095,0.00000545,-0.00001372,0.00000974,-0.00002554,0.00007221,-0.00
 002890,-0.00000348,-0.00006088,0.00006941,0.00000723,0.00015005,-0.000
 08764,-0.00001096,-0.00004286,0.00009640,0.00000288,0.00000425,0.00026
 281,-0.00000132,-0.00010468,0.00000193,-0.00000448,0.00001924,0.000019
 25,0.00000316,0.00003033,-0.00004301,0.00000080,-0.00002273,0.00000071
 ,0.00000332,0.00003202,0.00001764,0.00000282,0.00000143,0.00002014,-0.
 00000155,-0.00001567,-0.00000009,-0.00000347,0.00000121,-0.00000463,0.
 00000401,-0.00000139,0.00000299,-0.00000037,0.00001091,0.00000352,-0.0
 0000226,0.00000952,0.00000565,0.00001439,-0.00001167,0.00000921,0.0000
 0409,-0.00001488,0.00000160,-0.00000086,0.00001618,-0.00011270,0.00001
 925,-0.00001254,-0.00040131,0.00000793,0.00000064,-0.00000239,-0.00000
 183,-0.00003710,-0.00001106,-0.00000527,-0.00000278,-0.00000309,-0.000
 00198,-0.00001870,-0.00007024,-0.00000883,-0.00007021,-0.00002810,-0.0
 0000602,0.00002119,0.00002021,0.00001136,0.00002225,0.00000882,-0.0000
 1021,0.00001683,0.00000094,0.00000286,-0.00000221,0.00002098,-0.000001
 08,0.00001268,0.00001845,-0.00000518,0.00000869,0.00002403,0.00001592,
 -0.00136020,0.00049148,0.00130038,-0.00054730,0.00123516,-0.00008183,0
 .00328286,-0.00245853,-0.00319786,0.11573860,0.04040084,-0.23164749,-0
 .00257992,-0.00089155,0.00351364,0.01315649,0.00519421,-0.02178039,-0.
 12750188,-0.04321617,0.24958055,0.00000254,0.00000040,-0.00000336,0.00
 000056,-0.00000346,0.00001701,0.00000194,-0.00000159,0.00000599,0.0000
 2567,0.00007824,-0.00003156,-0.00006957,-0.00001388,0.00001743,0.00001
 769,0.00002133,-0.00000939,0.00000073,-0.00001551,-0.00001855,0.000020
 64,0.00000452,0.00000646,-0.00000516,0.00000408,-0.00000224,-0.0000142
 5,-0.00000705,-0.00001071,0.00001042,-0.00000236,-0.00000182,-0.000003
 82,0.00000133,-0.00000078,0.00000292,0.00000431,-0.00000138,0.00000237
 ,-0.00000094,0.00000246,-0.00000288,0.00000555,-0.00000376,-0.00000051
 ,-0.00000053,0.00000054,-0.00000103,-0.00000407,0.00000436,0.00000247,
 -0.00000268,-0.00001364,-0.00000040,0.00000051,-0.00000042,0.00000008,
 0.00000792,-0.00000371,-0.00000554,-0.00011146,0.00002083,0.00000843,0
 .00002692,0.00001538,-0.00000043,0.00000057,0.00000265,0.00002131,0.00
 000024,0.00001411,-0.00000676,-0.00000704,0.00000144,-0.00000243,-0.00
 000997,0.00001152,-0.00000090,-0.00001585,0.00001490,0.00000135,0.0000
 0377,-0.00000086,0.00000339,0.00000380,-0.00000891,-0.00000324,0.00000
 879,-0.00000425,-0.00000198,0.00000453,-0.00000337,0.00000315,0.000003
 11,-0.00000433,0.00000024,0.00000180,-0.00000324,0.00055346,0.00043440
 ,-0.00037475,0.00117396,0.00022993,-0.00072776,-0.00117011,-0.00189662
 ,0.00056381,-0.01631183,-0.00458888,0.02655453,-0.11988161,-0.02260230
 ,0.11822448,0.00095764,-0.00085593,-0.00017152,-0.00510855,0.00330797,
 -0.00100915,0.13242694,0.00000060,-0.00000201,0.00000061,-0.00000339,0
 .00000534,-0.00000141,0.00003453,-0.00001786,-0.00000103,-0.00004230,0
 .00002550,0.00000599,0.00011105,-0.00007152,-0.00000490,-0.00003018,0.
 00007065,0.00000110,0.00000166,0.00018842,-0.00001092,-0.00004347,0.00
 001708,-0.00000023,0.00000286,0.00001278,-0.00000058,0.00000280,-0.000
 05082,0.00001291,-0.00002179,0.00000753,0.00000436,0.00002858,0.000017
 89,-0.00000104,0.00000866,0.00002187,-0.00000076,-0.00000487,-0.000000
 56,0.,-0.00000022,0.00000095,-0.00000014,-0.00000091,0.00000153,0.0000
 0010,0.00000466,-0.00000036,0.00000206,0.00000299,-0.00000074,-0.00000
 091,-0.00000658,0.00000604,0.00000194,-0.00000597,0.00000437,-0.000001
 82,0.00001640,-0.00006846,0.00000203,-0.00003276,-0.00031702,0.0000202
 4,0.00000163,0.00000024,-0.00000134,-0.00002846,-0.00004376,-0.0000294
 4,-0.00000790,-0.00000557,-0.00000286,-0.00002213,-0.00006353,-0.00000
 275,-0.00007618,-0.00001490,0.00000053,0.00002126,0.00001506,0.0000083
 9,0.00002408,0.00000665,-0.00001339,0.00002121,-0.00000427,0.00000319,
 -0.00000078,0.00001827,-0.00000178,0.00001454,0.00001705,-0.00000689,0
 .00000864,0.00002141,0.00001295,-0.00063264,0.00009751,0.00015635,-0.0
 0061860,-0.00026690,0.00057623,0.00128472,0.00045452,-0.00093678,0.007
 64172,0.00229282,-0.01343318,-0.02355859,-0.05441990,0.03739975,-0.000
 76037,0.00045201,0.00025876,0.00295262,-0.00110654,0.00016525,0.023074
 02,0.05527860,-0.00000295,-0.00000278,0.00000102,-0.00000051,0.0000106
 7,-0.00000715,0.00001186,-0.00000618,-0.00000427,-0.00008236,-0.000078
 50,0.00002136,0.00017165,-0.00002470,-0.00000951,-0.00004440,0.0000021
 7,0.00000659,-0.00012539,0.00003377,0.00001381,0.00013729,0.00005331,-
 0.00000812,-0.00004012,-0.00001378,0.00000461,-0.00006090,-0.00001734,
 0.00001789,0.00001979,-0.00000221,0.00000755,-0.00002003,0.00001458,0.
 00000040,0.00002989,0.00002152,-0.00000279,-0.00000338,0.00000051,-0.0
 0000091,0.00000174,-0.00000231,0.00000299,0.00000068,0.00000036,-0.000
 00119,0.00000028,0.00000086,-0.00000241,-0.00000102,-0.00000129,0.0000
 0636,-0.00000379,0.00000220,-0.00000020,-0.00000293,-0.00000182,0.0000
 0250,0.00001780,0.00008585,-0.00001654,-0.00000549,-0.00004162,-0.0000
 2333,0.00000902,0.00000378,-0.00000274,0.00002531,-0.00008197,-0.00002
 778,-0.00002239,-0.00001528,-0.00000835,-0.00000422,-0.00006603,-0.000
 01549,-0.00001264,-0.00005338,-0.00001677,0.00001248,0.00002448,0.0000
 1628,0.00000499,0.00001008,-0.00000017,-0.00000323,0.00002225,0.000001
 11,-0.00000832,0.00002233,-0.00000147,0.00000414,0.00001509,0.00000055
 ,0.00000565,0.00002292,0.00001731,-0.00047398,-0.00057589,-0.00002936,
 -0.00170927,0.00044329,0.00054752,0.00172304,0.00149309,-0.00005802,-0
 .00206595,-0.00110766,0.00303909,0.11908325,0.03571802,-0.24235203,0.0
 0037625,-0.00038521,0.00075683,-0.00068742,0.00050875,0.00147881,-0.12
 971563,-0.04143055,0.25982547,0.00000878,0.00000491,-0.00000041,-0.000
 01199,-0.00000808,0.00000080,0.00006320,-0.00001807,0.00000029,0.00012
 353,0.00037051,-0.00001720,-0.00028099,-0.00005750,0.00000065,0.000071
 40,0.00010609,-0.00000423,0.00015182,0.00002674,0.00000016,-0.00016380
 ,-0.00005557,0.00000005,0.00004143,0.00002858,-0.00000136,0.00006037,0
 .00000233,0.00000137,-0.00001160,-0.00000350,0.00000077,0.00002821,-0.
 00000145,0.00000287,-0.00002514,-0.00000964,0.00000056,-0.00000614,-0.
 00000160,0.00000001,-0.00000454,0.00000486,-0.00000260,-0.00000447,0.0
 0000521,0.00000221,0.00001173,-0.00000347,0.00001708,0.00001257,-0.000
 00528,-0.00001702,-0.00000953,0.00001415,0.00000476,-0.00000959,0.0000
 1352,-0.00000591,-0.00004980,-0.00054697,0.00002597,-0.00001837,-0.000
 07263,0.00000577,-0.00001020,-0.00000496,0.,-0.00002876,0.00003974,-0.
 00000532,0.00001361,0.00000547,-0.00000036,-0.00000232,0.00001834,-0.0
 0000087,-0.00000713,0.00001023,-0.00000064,-0.00000120,-0.00000351,-0.
 00000240,0.00000167,-0.00000142,-0.00000010,0.00000217,-0.00000777,0.0
 0000112,0.00000483,-0.00000680,0.00000174,-0.00000072,-0.00000370,0.00
 000011,-0.00000070,-0.00000563,-0.00000164,-0.00098683,0.00366978,-0.0
 0044234,0.00214649,-0.00020884,0.00002780,-0.00683551,-0.00288558,0.00
 033410,0.00436697,0.03305959,-0.00433936,-0.05133017,-0.02866882,0.003
 70089,0.00114249,-0.00081408,-0.00027125,0.00117086,-0.00071365,0.0004
 4486,-0.00225343,-0.01659717,0.00021681,0.05487983,-0.00001226,-0.0000
 0192,0.00000035,0.00001554,0.00000527,-0.00000038,-0.00012442,0.000055
 74,-0.00000178,-0.00004359,-0.00039797,0.00002054,0.00009246,0.0002482
 6,-0.00001133,-0.00001688,-0.00026804,0.00001181,-0.00018739,-0.000373
 30,0.00002303,0.00027783,0.00003481,-0.00000152,-0.00005429,-0.0000604
 9,0.00000175,-0.00008256,0.00008631,-0.00000086,0.00005729,0.00000172,
 0.00000406,-0.00009192,-0.00003665,-0.00000924,0.00001300,-0.00003700,
 0.00000738,0.00001305,0.00000523,0.00000002,0.00000695,-0.00000939,0.0
 0000652,0.00000679,-0.00001049,-0.00000587,-0.00001911,0.00000395,-0.0
 0002516,-0.00002014,0.00000596,0.00002532,0.00001897,-0.00002565,-0.00
 001120,0.00001937,-0.00002431,0.00001303,-0.00001582,0.00066612,-0.000
 03700,0.00009584,0.00067821,-0.00004861,0.00000871,0.00000632,-0.00000
 013,0.00007722,0.00004590,-0.00000981,0.00000489,0.00000652,-0.0000001
 4,0.00005928,0.00013307,0.00000038,0.00018678,0.00003660,-0.00000646,-
 0.00004970,-0.00003507,-0.00001703,-0.00005951,-0.00001674,0.00003406,
 -0.00005063,0.00001290,-0.00000631,-0.00000370,-0.00003680,0.00000347,
 -0.00003580,-0.00003768,0.00001866,-0.00002037,-0.00004470,-0.00002571
 ,0.00179698,-0.00259855,0.00032211,0.00070624,-0.00123936,0.00021746,0
 .00102252,0.00275163,-0.00028474,-0.00384494,-0.01295529,0.00159750,-0
 .02793822,-0.30587099,0.03395448,0.00015033,0.00051125,0.00043751,0.00
 009127,0.00031748,-0.00055736,-0.00066951,-0.00406868,0.00051536,0.029
 68184,0.33363980,0.00000167,0.00000039,-0.00000059,-0.00000200,-0.0000
 0107,0.00000442,0.00001623,-0.00000745,0.00000064,0.00000577,0.0000518
 1,-0.00000015,-0.00001208,-0.00003344,-0.00000139,0.00000209,0.0000355
 9,-0.00000055,0.00002402,0.00004834,0.00001000,-0.00003594,-0.00000438
 ,-0.00000395,0.00000705,0.00000837,-0.00000051,0.00000986,-0.00000993,
 0.00001340,-0.00000693,-0.00000041,0.00000603,0.00001206,0.00000475,-0
 .00000017,-0.00000183,0.00000505,0.00000038,-0.00000169,-0.00000067,0.
 00000100,-0.00000087,0.00000205,-0.00000146,-0.00000093,0.00000047,0.0
 0000044,0.00000298,-0.00000028,0.00000222,0.00000221,-0.00000080,-0.00
 000433,-0.00000266,0.00000291,0.00000129,-0.00000211,0.00000352,-0.000
 00213,0.00000172,-0.00008611,0.00000351,-0.00001266,-0.00008918,-0.000
 00693,-0.00000111,-0.00000090,-0.00000048,-0.00000846,-0.00000886,-0.0
 0003529,-0.00000088,-0.00000130,-0.00000409,-0.00000810,-0.00001888,-0
 .00000107,-0.00002498,-0.00000620,-0.00000221,0.00000683,0.00000537,0.
 00000298,0.00000784,0.00000256,-0.00000350,0.00000664,-0.00000147,0.00
 000156,0.00000048,0.00000534,-0.00000039,0.00000479,0.00000537,-0.0000
 0238,0.00000285,0.00000636,0.00000391,-0.00021352,0.00033229,-0.000016
 76,-0.00003563,0.00018830,0.00062619,-0.00014602,-0.00033856,0.0006635
 1,0.00044159,0.00140493,-0.00123097,0.00366058,0.03405217,-0.05538552,
 0.00016944,0.00026335,-0.00009024,-0.00020080,-0.00037331,0.00013786,0
 .00165113,0.02815975,-0.00235064,-0.00394356,-0.03807869,0.05287292,0.
 00000220,0.00000015,0.00000265,0.00000077,-0.00000373,-0.00001440,0.00
 000144,-0.00000201,-0.00000711,0.00002379,0.00008335,0.00002472,-0.000
 06589,-0.00001452,-0.00001961,0.00001704,0.00002215,0.00000841,-0.0000
 0734,-0.00001522,0.00002370,0.00003218,0.00000781,-0.00000936,-0.00000
 777,0.00000352,0.00000301,-0.00001911,-0.00000726,0.00000808,0.0000116
 1,-0.00000205,0.00000479,-0.00000559,0.00000154,-0.00000225,0.00000461
 ,0.00000525,0.00000207,0.00000283,-0.00000109,-0.00000201,-0.00000052,
 -0.00000019,-0.00000045,-0.00000283,0.00000578,0.00000310,0.00000215,-
 0.00000196,0.00001401,-0.00000140,-0.00000554,-0.00000553,-0.00000025,
 0.00000868,0.00000266,-0.00000027,0.00000110,0.00000073,-0.00000629,-0
 .00011969,-0.00000915,0.00000985,0.00002594,-0.00002395,0.,0.00000074,
 -0.00000305,0.00002446,-0.00000228,-0.00001201,-0.00000781,-0.00000758
 ,-0.00000020,-0.00000188,-0.00001207,-0.00001476,0.00000149,-0.0000183
 3,-0.00000972,0.00000285,0.00000812,0.00000647,-0.00000055,0.00000284,
 0.00000245,-0.00000281,0.00000813,0.00000066,-0.00000023,0.00000352,0.
 00000221,-0.00000087,0.00000209,0.00000313,0.00000188,0.00000585,0.000
 00894,0.00059756,0.00049741,0.00027404,0.00135775,0.00035860,0.0005124
 5,-0.00119318,-0.00200684,-0.00010560,-0.01664353,-0.01126835,-0.02428
 347,-0.12258677,-0.05375216,-0.10944795,-0.00512039,0.00345143,0.00021
 304,0.00094113,-0.00077839,0.00037639,0.00960654,0.00723599,0.01324439
 ,-0.00224902,-0.00106239,-0.00137506,0.13528219,0.00000161,-0.00000162
 ,-0.00000026,-0.00000356,0.00000236,-0.00000070,0.00003700,-0.00001967
 ,0.00000106,-0.00002672,0.00005122,-0.00000585,0.00007901,-0.00008395,
 0.00000895,-0.00002209,0.00008307,-0.00000588,0.00003091,0.00019421,-0
 .00001085,-0.00007984,0.00000399,-0.00000197,0.00001122,0.00001806,0.0
 0000115,0.00001769,-0.00005691,-0.00000994,-0.00003253,0.00000826,-0.0
 0000470,0.00003920,0.00001902,0.00000605,0.00000376,0.00002033,-0.0000
 0557,-0.00000456,-0.00000099,-0.00000021,-0.00000130,0.00000176,-0.000
 00095,-0.00000086,0.00000219,0.00000116,0.00000390,-0.00000020,0.00000
 326,0.00000545,-0.00000077,-0.00000354,-0.00000607,0.00000608,0.000002
 87,-0.00000625,0.00000607,-0.00000324,0.00001455,-0.00009919,0.0000053
 4,-0.00002984,-0.00032322,0.00001805,-0.00000024,-0.00000066,0.0000004
 2,-0.00003624,-0.00002233,0.00003416,-0.00000434,-0.00000266,0.0000000
 9,-0.00002649,-0.00006342,-0.00000145,-0.00008973,-0.00000653,-0.00000
 210,0.00002385,0.00001399,0.00000830,0.00002693,0.00000567,-0.00001324
 ,0.00002719,-0.00001056,0.00000520,0.00000094,0.00001723,-0.00000138,0
 .00001635,0.00001738,-0.00000792,0.00000959,0.00002137,0.00001276,-0.0
 0057313,0.00022386,-0.00020556,-0.00005405,-0.00007683,0.00015783,0.00
 089149,0.00028645,0.00083778,0.00804735,0.00605753,0.01253971,-0.05511
 108,-0.08572536,-0.07929669,0.00307095,-0.00116812,0.00048602,-0.00081
 708,0.00050679,-0.00018555,0.00358160,0.00148931,0.00488326,-0.0163562
 4,-0.01110397,-0.02552716,0.05734166,0.08971075,0.00000265,0.00000323,
 0.00000047,0.00000138,-0.00001241,-0.00000384,-0.00002027,0.00000962,-
 0.00000374,0.00009158,0.00007137,0.00000982,-0.00019620,0.00003931,-0.
 00001289,0.00005104,-0.00001817,0.00000708,0.00012111,-0.00008138,0.00
 001527,-0.00012140,-0.00005697,-0.00000595,0.00003793,0.00001108,0.000
 00200,0.00005695,0.00003231,0.00002103,-0.00001384,0.00000002,0.000009
 12,0.00001265,-0.00001843,0.00000131,-0.00003141,-0.00002630,0.0000048
 9,0.00000469,-0.00000045,-0.00000051,-0.00000065,-0.00000023,-0.000001
 51,-0.00000144,0.00000182,0.00000257,0.00000008,0.00000137,0.00000537,
 -0.00000136,-0.00000037,-0.00000272,0.00000466,0.00000013,0.00000170,0
 .00000526,-0.00000272,0.00000012,-0.00002256,-0.00006727,-0.00000589,0
 .00001482,0.00012464,-0.00002620,-0.00000914,-0.00000405,-0.00000204,-
 0.00001499,0.00008492,-0.00005175,0.00002382,0.00001505,-0.00000987,0.
 00000986,0.00007715,-0.00001340,0.00003119,0.00005447,-0.00002889,-0.0
 0001444,-0.00002131,-0.00000625,-0.00001674,-0.00001267,0.00002355,0.0
 0000058,-0.00002434,0.00000937,0.00001026,-0.00002714,0.00000754,-0.00
 001215,-0.00001968,0.00000958,-0.00000537,-0.00002307,-0.00000647,0.00
 064791,0.00051330,-0.00010159,0.00161973,0.00007662,0.00063638,-0.0020
 2804,-0.00161903,0.00008798,0.00007443,0.00044940,-0.00044731,-0.10996
 391,-0.07741937,-0.20876837,-0.00004903,0.00013598,0.00146508,-0.00016
 505,0.00045752,0.00068554,-0.01500394,-0.01090976,-0.02082881,0.004265
 83,0.00192452,0.00479343,0.12060353,0.08628131,0.22252880\\0.00000059,
 -0.00000088,0.00000476,-0.00000104,0.00000036,0.00000319,0.00000030,-0
 .00000159,0.00000255,0.00000047,0.00000092,0.00000235,-0.00000231,0.00
 000110,-0.00000159,-0.00000034,-0.00000230,0.00000355,0.00000181,-0.00
 000187,0.00000697,-0.00000081,0.00000003,-0.00000521,-0.00000353,-0.00
 000074,-0.00000032,0.00000115,-0.00000045,-0.00000118,0.00000002,0.000
 00022,-0.00000128,-0.00000050,0.00000078,-0.00000120,-0.00000119,0.000
 00020,0.00000194,0.00000001,-0.00000102,0.00000483,-0.00000105,0.00000
 049,0.00000541,0.00000034,-0.00000148,0.00000587,-0.00000030,0.0000001
 9,0.00000244,0.00000096,-0.00000154,0.00000283,-0.00000012,-0.00000137
 ,0.00000509,-0.00000054,0.00000091,0.00000439,-0.00000021,0.00000045,-
 0.00000006,0.00000130,0.00000190,-0.00000102,-0.00000034,-0.00000074,0
 .00000289,0.00000019,0.00000069,-0.00000341,0.00000069,0.00000061,-0.0
 0000350,0.00000175,-0.00000013,0.00000230,-0.00000108,0.00000309,0.000
 00061,-0.00000152,0.00000023,-0.00000189,0.00000010,0.00000218,-0.0000
 0373,-0.00000111,0.00000113,-0.00000585,0.00000237,0.00000060,0.000004
 70,-0.00000059,0.00000042,0.00000003,-0.00000102,0.00000149,0.00000231
 ,0.00000099,-0.00000316,0.00000191,-0.00000399,0.00000690,-0.00000445,
 0.00000027,0.00000224,-0.00000153,0.00000256,-0.00000156,-0.00000513,0
 .00000166,-0.00000559,-0.00000566,-0.00000062,-0.00000003,-0.00000432,
 0.00000152,-0.00000206,-0.00000427,-0.00000047,0.00000012,-0.00000523,
 0.00000148,-0.00000066,-0.00000651,0.00000214,-0.00000009,-0.00000357\
 \\@


 QED = W**5 (WHICH WAS WHAT WE WANTED)
 Job cpu time:       0 days  9 hours 13 minutes 21.4 seconds.
 File lengths (MBytes):  RWF=   1451 Int=      0 D2E=      0 Chk=     34 Scr=      1
 Normal termination of Gaussian 09 at Tue Feb 19 15:45:11 2019.
WARNING: pbs_rusage is deprecated and values produced may not be accurate


=============================================================================
                                     Resource usage:
                                       CPU time:              48:41:24
   JobId:    5874175.r-man2            Elapsed time:          06:19:28
   Project:             q95            Requested time:        52:00:00
   Service Units:     50.60 
                                       Max physical memory:     1581MB
                                       Max virtual memory:      3444MB
                                       Requested memory:           0MB

                                       Number of cpus:               8

                                       Max jobfs disk use:       1.4GB
                                       Requested jobfs:         24.0GB
=============================================================================

