 Entering Gaussian System, Link 0=/apps/gaussian/g09e01/g09/g09
 AtFile(1): /home/507/hio507/Basis/6-31pGd.gbs
 Initial command:
 /apps/gaussian/g09e01/g09/l1.exe "/jobfs/local/5975178.r-man2/Gau-42754.inp" -scrdir="/jobfs/local/5975178.r-man2/"
 Entering Link 1 = /apps/gaussian/g09e01/g09/l1.exe PID=     42755.
  
 Copyright (c) 1988,1990,1992,1993,1995,1998,2003,2009,2015,
            Gaussian, Inc.  All Rights Reserved.
  
 This is part of the Gaussian(R) 09 program.  It is based on
 the Gaussian(R) 03 system (copyright 2003, Gaussian, Inc.),
 the Gaussian(R) 98 system (copyright 1998, Gaussian, Inc.),
 the Gaussian(R) 94 system (copyright 1995, Gaussian, Inc.),
 the Gaussian 92(TM) system (copyright 1992, Gaussian, Inc.),
 the Gaussian 90(TM) system (copyright 1990, Gaussian, Inc.),
 the Gaussian 88(TM) system (copyright 1988, Gaussian, Inc.),
 the Gaussian 86(TM) system (copyright 1986, Carnegie Mellon
 University), and the Gaussian 82(TM) system (copyright 1983,
 Carnegie Mellon University). Gaussian is a federally registered
 trademark of Gaussian, Inc.
  
 This software contains proprietary and confidential information,
 including trade secrets, belonging to Gaussian, Inc.
  
 This software is provided under written license and may be
 used, copied, transmitted, or stored only in accord with that
 written license.
  
 The following legend is applicable only to US Government
 contracts under FAR:
  
                    RESTRICTED RIGHTS LEGEND
  
 Use, reproduction and disclosure by the US Government is
 subject to restrictions as set forth in subparagraphs (a)
 and (c) of the Commercial Computer Software - Restricted
 Rights clause in FAR 52.227-19.
  
 Gaussian, Inc.
 340 Quinnipiac St., Bldg. 40, Wallingford CT 06492
  
  
 ---------------------------------------------------------------
 Warning -- This program may not be used in any manner that
 competes with the business of Gaussian, Inc. or will provide
 assistance to any competitor of Gaussian, Inc.  The licensee
 of this program is prohibited from giving any competitor of
 Gaussian, Inc. access to this program.  By using this program,
 the user acknowledges that Gaussian, Inc. is engaged in the
 business of creating and licensing software in the field of
 computational chemistry and represents and warrants to the
 licensee that it is not a competitor of Gaussian, Inc. and that
 it will not use this program in any manner prohibited above.
 ---------------------------------------------------------------
  

 Cite this work as:
 Gaussian 09, Revision E.01,
 M. J. Frisch, G. W. Trucks, H. B. Schlegel, G. E. Scuseria, 
 M. A. Robb, J. R. Cheeseman, G. Scalmani, V. Barone, B. Mennucci, 
 G. A. Petersson, H. Nakatsuji, M. Caricato, X. Li, H. P. Hratchian, 
 A. F. Izmaylov, J. Bloino, G. Zheng, J. L. Sonnenberg, M. Hada, 
 M. Ehara, K. Toyota, R. Fukuda, J. Hasegawa, M. Ishida, T. Nakajima, 
 Y. Honda, O. Kitao, H. Nakai, T. Vreven, J. A. Montgomery, Jr., 
 J. E. Peralta, F. Ogliaro, M. Bearpark, J. J. Heyd, E. Brothers, 
 K. N. Kudin, V. N. Staroverov, T. Keith, R. Kobayashi, J. Normand, 
 K. Raghavachari, A. Rendell, J. C. Burant, S. S. Iyengar, J. Tomasi, 
 M. Cossi, N. Rega, J. M. Millam, M. Klene, J. E. Knox, J. B. Cross, 
 V. Bakken, C. Adamo, J. Jaramillo, R. Gomperts, R. E. Stratmann, 
 O. Yazyev, A. J. Austin, R. Cammi, C. Pomelli, J. W. Ochterski, 
 R. L. Martin, K. Morokuma, V. G. Zakrzewski, G. A. Voth, 
 P. Salvador, J. J. Dannenberg, S. Dapprich, A. D. Daniels, 
 O. Farkas, J. B. Foresman, J. V. Ortiz, J. Cioslowski, 
 and D. J. Fox, Gaussian, Inc., Wallingford CT, 2013.
 
 ******************************************
 Gaussian 09:  ES64L-G09RevE.01 30-Nov-2015
                21-Feb-2019 
 ******************************************
 %chk=34TFM_EtO.M062X_6-31pGd_bsse.chk
 %mem=196608000
 %nproc=4
 Will use up to    4 processors via shared memory.
 ----------------------------------------------------------------------
 # M062X/Gen 6D SCF=Tight INT(grid=ultrafine) Counterpoise=2 maxdisk=67
 1088640
 ----------------------------------------------------------------------
 1/38=1,62=2/1;
 2/12=2,17=6,18=5,40=1/2;
 1/38=1,53=2,62=2,63=1/22;
 3/5=7,8=2,11=2,16=1,25=1,30=1,74=-55,75=-5/1,2,3;
 4//1;
 5/5=2,32=2,38=5/2;
 6/7=2,8=2,9=2,10=2,28=1/1;
 1/53=2,62=2,63=1/22;
 3/5=7,6=11,8=2,11=2,16=1,25=1,30=1,74=-55,75=-5,82=7/1,2,3;
 4//1;
 5/5=2,32=2,38=5/2;
 6/7=2,8=2,9=2,10=2,28=1/1;
 1/53=2,62=2,63=1/22(-4);
 99/5=1,9=1/99;
 ----------------------------
 34TFM_EtO.M062X_6-31pGd_bsse
 ----------------------------
 Symbolic Z-matrix:
 Charge = -1 Multiplicity = 1 in supermolecule
 Charge =  0 Multiplicity = 1 in fragment      1.
 Charge = -1 Multiplicity = 1 in fragment      2.
 C(Fragment=1)        -2.11563   2.24671  -0.16099 
 C(Fragment=1)        -0.74363   1.57767  -0.12958 
 C(Fragment=1)         0.3823    2.60523  -0.10274 
 N(Fragment=1)         1.66011   1.9307   -0.06589 
 C(Fragment=1)         2.80664   2.64465  -0.10367 
 O(Fragment=1)         2.84084   3.87464  -0.1826 
 N(Fragment=1)         3.94155   1.83906  -0.04603 
 C(Fragment=1)         5.25275   2.2428   -0.06625 
 C(Fragment=1)         5.67976   3.5845   -0.16082 
 C(Fragment=1)         6.23388   1.23448   0.01007 
 C(Fragment=1)         7.57816   1.55993  -0.00145 
 C(Fragment=1)         8.01191   2.88587  -0.08805 
 C(Fragment=1)         7.03451   3.89263  -0.17557 
 H(Fragment=1)        -2.92069   1.50495  -0.18266 
 H(Fragment=1)        -2.2231    2.8846   -1.04638 
 H(Fragment=1)        -2.26607   2.87889   0.72218 
 H(Fragment=1)        -0.61386   0.92823  -1.00344 
 H(Fragment=1)        -0.65511   0.9236    0.74583 
 H(Fragment=1)         0.27432   3.26461   0.7715 
 H(Fragment=1)         0.32977   3.2544   -0.98799 
 H(Fragment=1)         1.67414   0.89703   0.0223 
 H(Fragment=1)         3.79908   0.8072    0.0236 
 H(Fragment=1)         4.93514   4.36549  -0.22651 
 H(Fragment=1)         5.91006   0.19884   0.08067 
 H(Fragment=1)         8.31405   0.76567   0.06327 
 C(Fragment=1)         7.39604   5.35738  -0.25048 
 C(Fragment=1)         9.49008   3.14342  -0.12282 
 F(Fragment=1)         9.86754   4.19143   0.63322 
 F(Fragment=1)         9.96056   3.37966  -1.36764 
 F(Fragment=1)         10.18925   2.08046   0.33346 
 F(Fragment=1)         6.37158   6.11336  -0.67935 
 F(Fragment=1)         8.42009   5.59349  -1.0931 
 F(Fragment=1)         7.75597   5.8576    0.94943 
 O(Fragment=2)         1.5732   -0.86706   0.17316 
 O(Fragment=2)         3.81796  -0.91395   0.1484 
 C(Fragment=2)         2.68155  -1.4588    0.20611 
 C(Fragment=2)         2.63148  -2.99015   0.32772 
 C(Fragment=2)         3.99663  -3.66535   0.37231 
 H(Fragment=2)         2.03609  -3.35916  -0.51663 
 H(Fragment=2)         2.04683  -3.22144   1.22667 
 H(Fragment=2)         4.56971  -3.43743  -0.53106 
 H(Fragment=2)         3.89819  -4.75439   0.45908 
 H(Fragment=2)         4.58096  -3.29908   1.22141 
 
                          Input orientation:                          
 ---------------------------------------------------------------------
 Center     Atomic      Atomic             Coordinates (Angstroms)
 Number     Number       Type             X           Y           Z
 ---------------------------------------------------------------------
      1          6           0       -2.115626    2.246711   -0.160990
      2          6           0       -0.743633    1.577670   -0.129583
      3          6           0        0.382304    2.605229   -0.102737
      4          7           0        1.660108    1.930695   -0.065887
      5          6           0        2.806637    2.644648   -0.103668
      6          8           0        2.840839    3.874644   -0.182597
      7          7           0        3.941546    1.839063   -0.046029
      8          6           0        5.252754    2.242802   -0.066248
      9          6           0        5.679765    3.584499   -0.160816
     10          6           0        6.233875    1.234483    0.010072
     11          6           0        7.578159    1.559929   -0.001450
     12          6           0        8.011914    2.885867   -0.088051
     13          6           0        7.034512    3.892632   -0.175574
     14          1           0       -2.920692    1.504948   -0.182664
     15          1           0       -2.223104    2.884599   -1.046377
     16          1           0       -2.266071    2.878891    0.722179
     17          1           0       -0.613862    0.928227   -1.003438
     18          1           0       -0.655114    0.923600    0.745831
     19          1           0        0.274316    3.264609    0.771501
     20          1           0        0.329769    3.254404   -0.987985
     21          1           0        1.674140    0.897025    0.022300
     22          1           0        3.799082    0.807204    0.023603
     23          1           0        4.935136    4.365494   -0.226505
     24          1           0        5.910061    0.198843    0.080669
     25          1           0        8.314047    0.765669    0.063269
     26          6           0        7.396042    5.357377   -0.250475
     27          6           0        9.490079    3.143415   -0.122816
     28          9           0        9.867538    4.191431    0.633219
     29          9           0        9.960563    3.379664   -1.367639
     30          9           0       10.189252    2.080461    0.333458
     31          9           0        6.371581    6.113359   -0.679352
     32          9           0        8.420089    5.593490   -1.093099
     33          9           0        7.755973    5.857604    0.949427
     34          8           0        1.573197   -0.867062    0.173159
     35          8           0        3.817957   -0.913949    0.148402
     36          6           0        2.681551   -1.458802    0.206105
     37          6           0        2.631482   -2.990153    0.327719
     38          6           0        3.996634   -3.665347    0.372315
     39          1           0        2.036095   -3.359156   -0.516628
     40          1           0        2.046832   -3.221442    1.226673
     41          1           0        4.569714   -3.437430   -0.531059
     42          1           0        3.898186   -4.754386    0.459084
     43          1           0        4.580955   -3.299079    1.221413
 ---------------------------------------------------------------------
                    Distance matrix (angstroms):
                    1          2          3          4          5
     1  C    0.000000
     2  C    1.526751   0.000000
     3  C    2.524200   1.524577   0.000000
     4  N    3.790130   2.430361   1.445385   0.000000
     5  C    4.938656   3.707227   2.424654   1.351179   0.000000
     6  O    5.217008   4.257621   2.768065   2.277429   1.233000
     7  N    6.071962   4.693209   3.641212   2.283363   1.392949
     8  C    7.368991   6.033496   4.884053   3.606177   2.479187
     9  C    7.909349   6.729664   5.387525   4.347610   3.023482
    10  C    8.412374   6.987339   6.011036   4.627075   3.707757
    11  C    9.719393   8.322797   7.272086   5.930004   4.894332
    12  C   10.147951   8.852836   7.634784   6.423261   5.210886
    13  C    9.297005   8.115461   6.776030   5.722363   4.408804
    14  H    1.094903   2.178920   3.482354   4.602024   5.840159
    15  H    1.096523   2.176559   2.785078   4.117115   5.122946
    16  H    1.096482   2.176348   2.787340   4.115216   5.144828
    17  H    2.168735   1.096466   2.148475   2.656103   3.931348
    18  H    2.169342   1.096354   2.150391   2.652052   3.958204
    19  H    2.759978   2.166550   1.100334   2.097848   2.750077
    20  H    2.771160   2.168060   1.099024   2.090998   2.699758
    21  H    4.027105   2.516341   2.145329   1.037520   2.086289
    22  H    6.090159   4.610135   3.863060   2.417737   2.092211
    23  H    7.362525   6.326909   4.882840   4.084097   2.739873
    24  H    8.286363   6.798309   6.031619   4.591610   3.955652
    25  H   10.536691   9.096048   8.143960   6.756394   5.821511
    26  C   10.007801   8.975250   7.535825   6.684097   5.333206
    27  C   11.640358  10.352800   9.123684   7.923533   6.702054
    28  F   12.165892  10.954933   9.645068   8.541755   7.265801
    29  F   12.189090  10.925190   9.692408   8.525937   7.301816
    30  F   12.315930  10.954231   9.830660   8.539801   7.417033
    31  F    9.340897   8.455826   6.964977   6.330007   5.007214
    32  F   11.093739  10.051317   8.632294   7.756840   6.417591
    33  F   10.569770   9.577338   8.127483   7.321956   5.993998
    34  O    4.838869   3.381725   3.681188   2.809296   3.732307
    35  O    6.730000   5.205146   4.924571   3.576903   3.708089
    36  C    6.072767   4.589633   4.679559   3.550495   4.117027
    37  C    7.085099   5.697854   6.045858   5.031227   5.654004
    38  C    8.520362   7.085990   7.253219   6.080055   6.438843
    39  H    6.984913   5.678815   6.203243   5.322317   6.067120
    40  H    7.010875   5.714683   6.203876   5.325860   6.062849
    41  H    8.782949   7.317381   7.364211   6.123640   6.346872
    42  H    9.250178   7.873242   8.175635   7.069293   7.500259
    43  H    8.804035   7.345687   7.364978   6.126911   6.342866
                    6          7          8          9         10
     6  O    0.000000
     7  N    2.318145   0.000000
     8  C    2.914410   1.372109   0.000000
     9  C    2.853797   2.465994   1.411181   0.000000
    10  C    4.303518   2.371379   1.408947   2.420499   0.000000
    11  C    5.275692   3.647583   2.424463   2.779961   1.383165
    12  C    5.265609   4.203030   2.833191   2.435632   2.428604
    13  C    4.193718   3.714884   2.430751   1.389426   2.782308
    14  H    6.229823   6.871725   8.207509   8.848325   9.160589
    15  H    5.231618   6.332199   7.567101   7.983071   8.680983
    16  H    5.281161   6.340811   7.586762   8.025825   8.686786
    17  H    4.614120   4.743204   6.084703   6.882988   6.929105
    18  H    4.668225   4.753356   6.107591   6.930590   6.935139
    19  H    2.805260   4.018596   5.150802   5.494581   6.341730
    20  H    2.709025   3.991917   5.109669   5.423617   6.319388
    21  H    3.204587   2.456264   3.824321   4.827118   4.572221
    22  H    3.220239   1.043972   2.045037   3.359217   2.472037
    23  H    2.151498   2.720780   2.152298   1.081083   3.397929
    24  H    4.795930   2.565429   2.152070   3.402060   1.087377
    25  H    6.299379   4.503653   3.401501   3.864642   2.133010
    26  C    4.790927   4.934965   3.785261   2.469159   4.291477
    27  C    6.689594   5.700303   4.332346   3.835948   3.776843
    28  F    7.080990   6.411895   5.057928   4.305381   4.726030
    29  F    7.234625   6.352060   5.014931   4.452371   4.515317
    30  F    7.581859   6.263874   4.955313   4.779321   4.057741
    31  F    4.210077   4.957396   4.075399   2.672568   4.929269
    32  F    5.908593   5.937122   4.723721   3.523432   4.999746
    33  F    5.419608   5.629339   4.512704   3.272658   4.957057
    34  O    4.921103   3.602809   4.823662   6.065627   5.115175
    35  O    4.898464   2.762636   3.474162   4.878317   3.235979
    36  C    5.349963   3.539360   4.515211   5.878673   4.462199
    37  C    6.886922   5.017697   5.866012   7.263384   5.561087
    38  C    7.648219   5.520560   6.056105   7.461731   5.398593
    39  H    7.286086   5.556410   6.475467   7.849667   6.245021
    40  H    7.278113   5.551435   6.465876   7.838632   6.234318
    41  H    7.521760   5.335844   5.740003   7.118762   4.988890
    42  H    8.717219   6.612912   7.146431   8.549579   6.443882
    43  H    7.514091   5.330644   5.729034   7.106447   4.975206
                   11         12         13         14         15
    11  C    0.000000
    12  C    1.397768   0.000000
    13  C    2.401536   1.405899   0.000000
    14  H   10.500559  11.019880  10.237537   0.000000
    15  H    9.945420  10.279786   9.352961   1.770894   0.000000
    16  H    9.958522  10.309873   9.398641   1.770590   1.769087
    17  H    8.277211   8.892372   8.244432   2.515501   2.533554
    18  H    8.291569   8.925426   8.294244   2.516528   3.084821
    19  H    7.539862   7.794402   6.855043   3.770267   3.112266
    20  H    7.508905   7.743452   6.783872   3.778179   2.580180
    21  H    5.941165   6.643421   6.143809   4.639403   4.503447
    22  H    3.853393   4.699070   4.475214   6.759050   6.459656
    23  H    3.861012   3.416874   2.152573   8.360543   7.355654
    24  H    2.154495   3.415604   3.869641   8.930702   8.638975
    25  H    1.084697   2.146956   3.387056  11.261721  10.805218
    26  C    3.809960   2.552262   1.510560  11.012756   9.963738
    27  C    2.485477   1.500837   2.567863  12.518602  11.752388
    28  F    3.545259   2.380771   2.961328  13.092810  12.276501
    29  F    3.294504   2.382942   3.200926  13.070786  12.197952
    30  F    2.683453   2.359481   3.673617  13.132716  12.514678
    31  F    4.759108   3.668382   2.371686  10.384146   9.188483
    32  F    4.262647   2.916839   2.377939  12.089598  10.982615
    33  F    4.405201   3.158020   2.376394  11.585267  10.602074
    34  O    6.479224   7.457197   7.252741   5.093926   5.474863
    35  O    4.503515   5.664256   5.792617   7.167291   7.235391
    36  C    5.756091   6.882982   6.908819   6.349810   6.670044
    37  C    6.729131   7.978065   8.186129   7.161918   7.743892
    38  C    6.345907   7.697585   8.164063   8.653864   9.143283
    39  H    7.428141   8.654155   8.814132   6.952753   7.576667
    40  H    7.413864   8.637704   8.800755   7.000092   7.789920
    41  H    5.857032   7.213119   7.741538   8.980795   9.293868
    42  H    7.322900   8.694572   9.220101   9.278373   9.904075
    43  H    5.838543   7.193034   7.726074   9.018028   9.469740
                   16         17         18         19         20
    16  H    0.000000
    17  H    3.084256   0.000000
    18  H    2.533555   1.749761   0.000000
    19  H    2.569976   3.065607   2.518893   0.000000
    20  H    3.131143   2.510334   3.067371   1.760390   0.000000
    21  H    4.465746   2.507601   2.439186   2.850661   2.895729
    22  H    6.447168   4.532497   4.513870   4.361442   4.364428
    23  H    7.413998   6.573416   6.636487   4.891953   4.798310
    24  H    8.628054   6.653484   6.638466   6.452735   6.451211
    25  H   10.809197   8.992877   8.996481   8.448880   8.428975
    26  C   10.022244   9.183838   9.245113   7.492870   7.409361
    27  C   11.789446  10.381337  10.421471   9.259848   9.201745
    28  F   12.204718  11.098958  11.018966   9.638881   9.719844
    29  F   12.414051  10.860968  11.099171   9.920309   9.639088
    30  F   12.486939  10.946332  10.913691   9.995001  10.016674
    31  F    9.329261   8.705574   8.850943   6.884548   6.691216
    32  F   11.174000  10.167840  10.370576   8.674908   8.422330
    33  F   10.457807   9.907904   9.753575   7.920257   8.104240
    34  O    5.391990   3.064419   2.915440   4.372163   4.458795
    35  O    7.192374   4.935723   4.872563   5.514163   5.552837
    36  C    6.600066   4.245073   4.135272   5.331517   5.401023
    37  C    7.654234   5.259082   5.127767   6.698898   6.784059
    38  C    9.064818   6.652089   6.544976   7.876503   7.948539
    39  H    7.678314   5.063685   5.213291   6.974053   6.846379
    40  H    7.487971   5.410401   4.971227   6.739278   7.056175
    41  H    9.391191   6.793494   6.924440   8.066254   7.935148
    42  H    9.814999   7.402003   7.283838   8.805358   8.886413
    43  H    9.235709   7.057351   6.743413   7.863306   8.118015
                   21         22         23         24         25
    21  H    0.000000
    22  H    2.126840   0.000000
    23  H    4.767208   3.743608   0.000000
    24  H    4.293470   2.197632   4.290200   0.000000
    25  H    6.641332   4.515329   4.945679   2.469968   0.000000
    26  C    7.260117   5.806661   2.653388   5.378500   4.693075
    27  C    8.133648   6.153598   4.717175   4.639875   2.659202
    28  F    8.852011   6.975011   5.009792   5.648690   3.804474
    29  F    8.761291   6.820333   5.246805   5.349933   3.404626
    30  F    8.602584   6.523148   5.756793   4.681438   2.306095
    31  F    7.054672   5.938617   2.307266   5.980980   5.737808
    32  F    8.295102   6.746055   3.795241   6.064667   4.965510
    33  F    7.902885   6.482335   3.400931   6.015290   5.198512
    34  O    1.773401   2.789283   6.232335   4.466889   6.936638
    35  O    2.809178   1.725776   5.409359   2.370611   4.800332
    36  C    2.568771   2.533173   6.260049   3.631362   6.057530
    37  C    4.014965   3.984432   7.727841   4.580372   6.816720
    38  C    5.131445   4.490473   8.107637   4.321832   6.194309
    39  H    4.305408   4.556153   8.255836   5.293745   7.534132
    40  H    4.307109   4.554970   8.247159   5.285472   7.518547
    41  H    5.241952   4.349534   7.817411   3.923420   5.660326
    42  H    6.088975   5.579494   9.204212   5.359601   7.080078
    43  H    5.243543   4.348292   7.808175   3.911941   5.639100
                   26         27         28         29         30
    26  C    0.000000
    27  C    3.050068   0.000000
    28  F    2.872044   1.346254   0.000000
    29  F    3.425810   1.351574   2.161261   0.000000
    30  F    4.345248   1.351629   2.156282   2.152663   0.000000
    31  F    1.343489   4.342272   4.199805   4.563728   5.644879
    32  F    1.347010   2.844151   2.653499   2.710989   4.184063
    33  F    1.348904   3.394651   2.708289   4.045887   4.535094
    34  O    8.533969   8.879671   9.726053   9.526628   9.107688
    35  O    7.231275   6.979165   7.930788   7.646248   7.042310
    36  C    8.300312   8.224636   9.151282   8.880959   8.301094
    37  C    9.628946   9.212165  10.199460   9.857191   9.101156
    38  C    9.661956   8.762553   9.811450   9.392980   8.447741
    39  H   10.236104   9.899515  10.939151  10.437102   9.837990
    40  H   10.217248   9.886074  10.791956  10.626956   9.757408
    41  H    9.242050   8.227039   9.360662   8.731201   7.922986
    42  H   10.723163   9.694490  10.755981  10.307866   9.290233
    43  H    9.220922   8.210492   9.187039   8.958179   7.821822
                   31         32         33         34         35
    31  F    0.000000
    32  F    2.153563   0.000000
    33  F    2.152875   2.163959   0.000000
    34  O    8.513374   9.498530   9.167903   0.000000
    35  O    7.522582   8.066456   7.874233   2.245386   0.000000
    36  C    8.469827   9.184420   8.934880   1.256858   1.261590
    37  C    9.893253  10.450149  10.243522   2.377262   2.398020
    38  C   10.117780  10.365349  10.254379   3.707170   2.766270
    39  H   10.418803  11.010793  10.946003   2.626902   3.097795
    40  H   10.463025  11.122175  10.728478   2.622466   3.102269
    41  H    9.720405   9.833554   9.936888   4.010216   2.719331
    42  H   11.203642  11.398922  11.302093   4.538570   3.853818
    43  H    9.767970   9.958600   9.695338   4.007513   2.724402
                   36         37         38         39         40
    36  C    0.000000
    37  C    1.536989   0.000000
    38  C    2.574084   1.523652   0.000000
    39  H    2.133144   1.097074   2.174325   0.000000
    40  H    2.133384   1.097009   2.174559   1.748765   0.000000
    41  H    2.832586   2.166633   1.093825   2.534870   3.082403
    42  H    3.522084   2.175848   1.096917   2.523107   2.523217
    43  H    2.832880   2.166695   1.093870   3.082322   2.535318
                   41         42         43
    41  H    0.000000
    42  H    1.779244   0.000000
    43  H    1.757961   1.779112   0.000000
 Stoichiometry    C15H17F6N2O3(1-)
 Framework group  C1[X(C15H17F6N2O3)]
 Deg. of freedom   123
 Full point group                 C1      NOp   1
 Largest Abelian subgroup         C1      NOp   1
 Largest concise Abelian subgroup C1      NOp   1
                         Standard orientation:                         
 ---------------------------------------------------------------------
 Center     Atomic      Atomic             Coordinates (Angstroms)
 Number     Number       Type             X           Y           Z
 ---------------------------------------------------------------------
      1          6           0       -6.368954   -3.337162    0.043266
      2          6           0       -5.458877   -2.111607    0.070501
      3          6           0       -3.987967   -2.501606   -0.022549
      4          7           0       -3.164188   -1.314145   -0.001032
      5          6           0       -1.817285   -1.421403   -0.006734
      6          8           0       -1.219908   -2.499979   -0.016960
      7          7           0       -1.181129   -0.182240    0.002505
      8          6           0        0.169051    0.062087    0.002990
      9          6           0        1.166922   -0.935754    0.003136
     10          6           0        0.575050    1.411263    0.007173
     11          6           0        1.918407    1.740709    0.004903
     12          6           0        2.914815    0.760462   -0.001704
     13          6           0        2.511705   -0.586387    0.005425
     14          1           0       -7.423847   -3.052242    0.112780
     15          1           0       -6.147629   -4.011331    0.879253
     16          1           0       -6.235934   -3.906223   -0.884499
     17          1           0       -5.618430   -1.536141    0.990076
     18          1           0       -5.704198   -1.432509   -0.754506
     19          1           0       -3.804518   -3.075824   -0.943068
     20          1           0       -3.712679   -3.160485    0.812885
     21          1           0       -3.628824   -0.386570   -0.013924
     22          1           0       -1.783385    0.670489    0.006843
     23          1           0        0.866216   -1.974168    0.006565
     24          1           0       -0.189989    2.183985    0.009496
     25          1           0        2.205286    2.786780    0.003341
     26          6           0        3.507419   -1.721954   -0.023446
     27          6           0        4.346486    1.210029    0.025111
     28          9           0        5.142623    0.507030   -0.802149
     29          9           0        4.906183    1.132951    1.252934
     30          9           0        4.466841    2.503625   -0.347750
     31          9           0        2.956525   -2.891548    0.341971
     32          9           0        4.547749   -1.517031    0.807310
     33          9           0        4.024484   -1.917967   -1.253797
     34          8           0       -4.532682    1.139028   -0.037194
     35          8           0       -2.560440    2.211426    0.007327
     36          6           0       -3.821228    2.174980   -0.019029
     37          6           0       -4.572243    3.515949   -0.029637
     38          6           0       -3.671421    4.744698   -0.015160
     39          1           0       -5.247659    3.511566    0.834866
     40          1           0       -5.221734    3.512688   -0.913707
     41          1           0       -3.033632    4.745323    0.873478
     42          1           0       -4.261317    5.669458   -0.023445
     43          1           0       -3.007214    4.746734   -0.884283
 ---------------------------------------------------------------------
 Rotational constants (GHZ):      0.2773089      0.0915671      0.0707010
 Counterpoise: doing full dimer calculation.
 General basis read from cards:  (6D, 7F)
 There are   528 symmetry adapted cartesian basis functions of A   symmetry.
 There are   528 symmetry adapted basis functions of A   symmetry.
   528 basis functions,   900 primitive gaussians,   528 cartesian basis functions
   100 alpha electrons      100 beta electrons
       nuclear repulsion energy      2474.9005028456 Hartrees.
 NAtoms=   43 NActive=   43 NUniq=   43 SFac= 1.00D+00 NAtFMM=   60 NAOKFM=F Big=F
 Integral buffers will be    131072 words long.
 Raffenetti 2 integral format.
 Two-electron integral symmetry is turned on.
 One-electron integrals computed using PRISM.
 NBasis=   528 RedAO= T EigKep=  1.36D-06  NBF=   528
 NBsUse=   525 1.00D-06 EigRej=  9.76D-07 NBFU=   525
 ExpMin= 4.38D-02 ExpMax= 7.00D+03 ExpMxC= 1.05D+03 IAcc=3 IRadAn=         5 AccDes= 0.00D+00
 Harris functional with IExCor= 1009 and IRadAn=       5 diagonalized for initial guess.
 HarFok:  IExCor= 1009 AccDes= 0.00D+00 IRadAn=         5 IDoV= 1 UseB2=F ITyADJ=14
 ICtDFT=  3500011 ScaDFX=  1.000000  1.000000  1.000000  1.000000
 FoFCou: FMM=F IPFlag=           0 FMFlag=      100000 FMFlg1=           0
         NFxFlg=           0 DoJE=T BraDBF=F KetDBF=T FulRan=T
         wScrn=  0.000000 ICntrl=     500 IOpCl=  0 I1Cent=   200000004 NGrid=           0
         NMat0=    1 NMatS0=      1 NMatT0=    0 NMatD0=    1 NMtDS0=    0 NMtDT0=    0
 Petite list used in FoFCou.
 Requested convergence on RMS density matrix=1.00D-08 within 128 cycles.
 Requested convergence on MAX density matrix=1.00D-06.
 Requested convergence on             energy=1.00D-06.
 No special actions if energy rises.
 EnCoef did     1 forward-backward iterations
 SCF Done:  E(RM062X) =  -1515.72878203     A.U. after   16 cycles
            NFock= 16  Conv=0.66D-08     -V/T= 2.0079

 **********************************************************************

            Population analysis using the SCF density.

 **********************************************************************

 Orbital symmetries:
       Occupied  (A) (A) (A) (A) (A) (A) (A) (A) (A) (A) (A) (A)
                 (A) (A) (A) (A) (A) (A) (A) (A) (A) (A) (A) (A)
                 (A) (A) (A) (A) (A) (A) (A) (A) (A) (A) (A) (A)
                 (A) (A) (A) (A) (A) (A) (A) (A) (A) (A) (A) (A)
                 (A) (A) (A) (A) (A) (A) (A) (A) (A) (A) (A) (A)
                 (A) (A) (A) (A) (A) (A) (A) (A) (A) (A) (A) (A)
                 (A) (A) (A) (A) (A) (A) (A) (A) (A) (A) (A) (A)
                 (A) (A) (A) (A) (A) (A) (A) (A) (A) (A) (A) (A)
                 (A) (A) (A) (A)
       Virtual   (A) (A) (A) (A) (A) (A) (A) (A) (A) (A) (A) (A)
                 (A) (A) (A) (A) (A) (A) (A) (A) (A) (A) (A) (A)
                 (A) (A) (A) (A) (A) (A) (A) (A) (A) (A) (A) (A)
                 (A) (A) (A) (A) (A) (A) (A) (A) (A) (A) (A) (A)
                 (A) (A) (A) (A) (A) (A) (A) (A) (A) (A) (A) (A)
                 (A) (A) (A) (A) (A) (A) (A) (A) (A) (A) (A) (A)
                 (A) (A) (A) (A) (A) (A) (A) (A) (A) (A) (A) (A)
                 (A) (A) (A) (A) (A) (A) (A) (A) (A) (A) (A) (A)
                 (A) (A) (A) (A) (A) (A) (A) (A) (A) (A) (A) (A)
                 (A) (A) (A) (A) (A) (A) (A) (A) (A) (A) (A) (A)
                 (A) (A) (A) (A) (A) (A) (A) (A) (A) (A) (A) (A)
                 (A) (A) (A) (A) (A) (A) (A) (A) (A) (A) (A) (A)
                 (A) (A) (A) (A) (A) (A) (A) (A) (A) (A) (A) (A)
                 (A) (A) (A) (A) (A) (A) (A) (A) (A) (A) (A) (A)
                 (A) (A) (A) (A) (A) (A) (A) (A) (A) (A) (A) (A)
                 (A) (A) (A) (A) (A) (A) (A) (A) (A) (A) (A) (A)
                 (A) (A) (A) (A) (A) (A) (A) (A) (A) (A) (A) (A)
                 (A) (A) (A) (A) (A) (A) (A) (A) (A) (A) (A) (A)
                 (A) (A) (A) (A) (A) (A) (A) (A) (A) (A) (A) (A)
                 (A) (A) (A) (A) (A) (A) (A) (A) (A) (A) (A) (A)
                 (A) (A) (A) (A) (A) (A) (A) (A) (A) (A) (A) (A)
                 (A) (A) (A) (A) (A) (A) (A) (A) (A) (A) (A) (A)
                 (A) (A) (A) (A) (A) (A) (A) (A) (A) (A) (A) (A)
                 (A) (A) (A) (A) (A) (A) (A) (A) (A) (A) (A) (A)
                 (A) (A) (A) (A) (A) (A) (A) (A) (A) (A) (A) (A)
                 (A) (A) (A) (A) (A) (A) (A) (A) (A) (A) (A) (A)
                 (A) (A) (A) (A) (A) (A) (A) (A) (A) (A) (A) (A)
                 (A) (A) (A) (A) (A) (A) (A) (A) (A) (A) (A) (A)
                 (A) (A) (A) (A) (A) (A) (A) (A) (A) (A) (A) (A)
                 (A) (A) (A) (A) (A) (A) (A) (A) (A) (A) (A) (A)
                 (A) (A) (A) (A) (A) (A) (A) (A) (A) (A) (A) (A)
                 (A) (A) (A) (A) (A) (A) (A) (A) (A) (A) (A) (A)
                 (A) (A) (A) (A) (A) (A) (A) (A) (A) (A) (A) (A)
                 (A) (A) (A) (A) (A) (A) (A) (A) (A) (A) (A) (A)
                 (A) (A) (A) (A) (A) (A) (A) (A) (A) (A) (A) (A)
                 (A) (A) (A) (A) (A)
 The electronic state is 1-A.
 Alpha  occ. eigenvalues --  -25.21465 -25.21147 -25.21105 -25.21062 -25.20771
 Alpha  occ. eigenvalues --  -25.20748 -19.49620 -19.47734 -19.47180 -14.67421
 Alpha  occ. eigenvalues --  -14.65409 -10.72470 -10.72298 -10.56568 -10.52339
 Alpha  occ. eigenvalues --  -10.51553 -10.50163 -10.49195 -10.48098 -10.47554
 Alpha  occ. eigenvalues --  -10.46621 -10.46274 -10.45706 -10.45011 -10.43407
 Alpha  occ. eigenvalues --  -10.43362  -1.37954  -1.37509  -1.28704  -1.28307
 Alpha  occ. eigenvalues --   -1.28181  -1.27985  -1.05800  -1.03798  -0.94657
 Alpha  occ. eigenvalues --   -0.94020  -0.91305  -0.88574  -0.79918  -0.79559
 Alpha  occ. eigenvalues --   -0.77950  -0.75473  -0.72669  -0.71048  -0.68173
 Alpha  occ. eigenvalues --   -0.64179  -0.63662  -0.61830  -0.60524  -0.60223
 Alpha  occ. eigenvalues --   -0.60005  -0.59542  -0.58737  -0.58393  -0.56163
 Alpha  occ. eigenvalues --   -0.53993  -0.51403  -0.48947  -0.48708  -0.48520
 Alpha  occ. eigenvalues --   -0.47939  -0.47843  -0.46780  -0.45537  -0.45358
 Alpha  occ. eigenvalues --   -0.44738  -0.44468  -0.43637  -0.43447  -0.42465
 Alpha  occ. eigenvalues --   -0.42108  -0.42068  -0.42004  -0.41856  -0.41316
 Alpha  occ. eigenvalues --   -0.41130  -0.40171  -0.39778  -0.38521  -0.38101
 Alpha  occ. eigenvalues --   -0.37690  -0.36582  -0.35097  -0.35008  -0.34599
 Alpha  occ. eigenvalues --   -0.34129  -0.33113  -0.32372  -0.31430  -0.30685
 Alpha  occ. eigenvalues --   -0.30421  -0.29293  -0.28080  -0.23369  -0.23206
 Alpha  occ. eigenvalues --   -0.20665  -0.20124  -0.19985  -0.19398  -0.16549
 Alpha virt. eigenvalues --    0.08718   0.09993   0.10237   0.10435   0.11052
 Alpha virt. eigenvalues --    0.11533   0.12053   0.12364   0.12802   0.12926
 Alpha virt. eigenvalues --    0.13337   0.13681   0.14407   0.14513   0.14677
 Alpha virt. eigenvalues --    0.14982   0.15724   0.15813   0.16080   0.16648
 Alpha virt. eigenvalues --    0.17351   0.17603   0.18049   0.18286   0.18386
 Alpha virt. eigenvalues --    0.19364   0.19767   0.20108   0.20301   0.20884
 Alpha virt. eigenvalues --    0.21314   0.21422   0.21713   0.21894   0.22188
 Alpha virt. eigenvalues --    0.22654   0.22970   0.23674   0.23896   0.24875
 Alpha virt. eigenvalues --    0.25415   0.25548   0.25928   0.26517   0.27153
 Alpha virt. eigenvalues --    0.27305   0.27539   0.28346   0.28536   0.29005
 Alpha virt. eigenvalues --    0.29591   0.30188   0.30447   0.30723   0.31440
 Alpha virt. eigenvalues --    0.31635   0.31728   0.32055   0.32345   0.32854
 Alpha virt. eigenvalues --    0.33589   0.33896   0.34035   0.34326   0.34534
 Alpha virt. eigenvalues --    0.34696   0.35106   0.35297   0.35573   0.36023
 Alpha virt. eigenvalues --    0.36161   0.36357   0.36697   0.36962   0.37692
 Alpha virt. eigenvalues --    0.38038   0.38478   0.38572   0.38757   0.39090
 Alpha virt. eigenvalues --    0.39484   0.39824   0.40468   0.40523   0.40810
 Alpha virt. eigenvalues --    0.41133   0.41519   0.41819   0.42182   0.42761
 Alpha virt. eigenvalues --    0.43290   0.43519   0.43595   0.44169   0.44218
 Alpha virt. eigenvalues --    0.44473   0.44602   0.45105   0.45190   0.45375
 Alpha virt. eigenvalues --    0.46014   0.46304   0.46707   0.47277   0.47519
 Alpha virt. eigenvalues --    0.47817   0.48088   0.48534   0.48738   0.48915
 Alpha virt. eigenvalues --    0.49329   0.49754   0.50009   0.50154   0.50284
 Alpha virt. eigenvalues --    0.51250   0.51821   0.52121   0.52943   0.53743
 Alpha virt. eigenvalues --    0.53886   0.54790   0.55021   0.55704   0.55972
 Alpha virt. eigenvalues --    0.56199   0.56874   0.57316   0.58076   0.58389
 Alpha virt. eigenvalues --    0.59019   0.59336   0.60370   0.61849   0.62377
 Alpha virt. eigenvalues --    0.63567   0.64198   0.64655   0.65461   0.65678
 Alpha virt. eigenvalues --    0.67306   0.67722   0.68116   0.70828   0.71141
 Alpha virt. eigenvalues --    0.73122   0.75401   0.77830   0.78113   0.80249
 Alpha virt. eigenvalues --    0.80590   0.81364   0.82259   0.84211   0.84463
 Alpha virt. eigenvalues --    0.84793   0.85846   0.86162   0.86610   0.86919
 Alpha virt. eigenvalues --    0.87552   0.88207   0.88372   0.89636   0.91453
 Alpha virt. eigenvalues --    0.92072   0.92781   0.93252   0.93682   0.94227
 Alpha virt. eigenvalues --    0.94480   0.95981   0.96981   0.97271   0.98383
 Alpha virt. eigenvalues --    0.99219   1.00442   1.01337   1.02686   1.03441
 Alpha virt. eigenvalues --    1.04339   1.04785   1.05974   1.07844   1.08223
 Alpha virt. eigenvalues --    1.08707   1.09764   1.09953   1.10836   1.12382
 Alpha virt. eigenvalues --    1.14072   1.15527   1.16567   1.17888   1.18242
 Alpha virt. eigenvalues --    1.18466   1.19175   1.20099   1.20683   1.21309
 Alpha virt. eigenvalues --    1.23304   1.25378   1.27055   1.28017   1.28388
 Alpha virt. eigenvalues --    1.28818   1.28962   1.30283   1.31012   1.32325
 Alpha virt. eigenvalues --    1.32841   1.33790   1.34892   1.36045   1.36871
 Alpha virt. eigenvalues --    1.38428   1.40249   1.41726   1.42955   1.43795
 Alpha virt. eigenvalues --    1.44453   1.47348   1.48036   1.48174   1.49456
 Alpha virt. eigenvalues --    1.50315   1.51002   1.51542   1.52526   1.53267
 Alpha virt. eigenvalues --    1.54737   1.55248   1.55897   1.56092   1.56713
 Alpha virt. eigenvalues --    1.58127   1.58636   1.59724   1.60797   1.61415
 Alpha virt. eigenvalues --    1.61664   1.62543   1.64685   1.65549   1.67301
 Alpha virt. eigenvalues --    1.68422   1.69538   1.70593   1.72238   1.72907
 Alpha virt. eigenvalues --    1.74481   1.74848   1.75468   1.76758   1.78249
 Alpha virt. eigenvalues --    1.78565   1.79149   1.79691   1.80732   1.81148
 Alpha virt. eigenvalues --    1.82115   1.83213   1.83883   1.84224   1.84406
 Alpha virt. eigenvalues --    1.84750   1.85539   1.85627   1.85715   1.86953
 Alpha virt. eigenvalues --    1.87114   1.88996   1.89150   1.89721   1.90820
 Alpha virt. eigenvalues --    1.91877   1.92902   1.94714   1.94911   1.95624
 Alpha virt. eigenvalues --    1.96577   1.97188   1.98040   1.98517   1.99243
 Alpha virt. eigenvalues --    1.99515   1.99991   2.00303   2.01420   2.02271
 Alpha virt. eigenvalues --    2.02697   2.02985   2.03920   2.05146   2.05557
 Alpha virt. eigenvalues --    2.05821   2.06111   2.06863   2.06956   2.07507
 Alpha virt. eigenvalues --    2.08102   2.08492   2.09460   2.11946   2.13084
 Alpha virt. eigenvalues --    2.13276   2.14090   2.14729   2.15831   2.16875
 Alpha virt. eigenvalues --    2.17703   2.18409   2.18960   2.19623   2.20911
 Alpha virt. eigenvalues --    2.21476   2.22300   2.22305   2.22780   2.23753
 Alpha virt. eigenvalues --    2.24700   2.24850   2.25846   2.26150   2.26717
 Alpha virt. eigenvalues --    2.26798   2.27692   2.27997   2.29416   2.31580
 Alpha virt. eigenvalues --    2.32196   2.32832   2.33243   2.34400   2.36105
 Alpha virt. eigenvalues --    2.38460   2.38945   2.40347   2.41411   2.42092
 Alpha virt. eigenvalues --    2.43206   2.44178   2.46543   2.46661   2.49045
 Alpha virt. eigenvalues --    2.49475   2.49794   2.50373   2.50751   2.53173
 Alpha virt. eigenvalues --    2.54778   2.57268   2.58850   2.59434   2.61195
 Alpha virt. eigenvalues --    2.61557   2.64480   2.65144   2.65934   2.67703
 Alpha virt. eigenvalues --    2.71619   2.72515   2.75045   2.75535   2.76236
 Alpha virt. eigenvalues --    2.76992   2.79149   2.81765   2.85146   2.86436
 Alpha virt. eigenvalues --    2.88233   2.89080   2.89209   2.90304   2.91274
 Alpha virt. eigenvalues --    2.94110   2.94399   2.97977   2.99878   3.01201
 Alpha virt. eigenvalues --    3.03125   3.06308   3.08392   3.12994   3.17917
 Alpha virt. eigenvalues --    3.23373   3.26228   3.27732   3.29276   3.31301
 Alpha virt. eigenvalues --    3.32059   3.34909   3.35297   3.38303   3.41721
 Alpha virt. eigenvalues --    3.43050   3.49311   3.50228   3.56218   4.35025
 Alpha virt. eigenvalues --    4.36802   4.39632   4.41676   4.44604   4.51618
 Alpha virt. eigenvalues --    4.53670   4.56493   4.56568   4.59960   4.60318
 Alpha virt. eigenvalues --    4.61757   4.67425   4.72708   4.73185   4.76659
 Alpha virt. eigenvalues --    4.81597   4.88209   4.92721   5.01233   5.91875
 Alpha virt. eigenvalues --    5.97974   6.15467   6.25012   7.02718   7.33008
          Condensed to atoms (all electrons):
               1          2          3          4          5          6
     1  C    5.940689  -0.328975   0.069499  -0.035528  -0.067547  -0.001669
     2  C   -0.328975   6.590221  -0.701823  -0.054018   0.305211   0.027352
     3  C    0.069499  -0.701823   7.300848   0.285219  -0.928876  -0.132601
     4  N   -0.035528  -0.054018   0.285219   7.811940   0.459562  -0.188294
     5  C   -0.067547   0.305211  -0.928876   0.459562   6.386939   0.614127
     6  O   -0.001669   0.027352  -0.132601  -0.188294   0.614127   8.347355
     7  N   -0.001045   0.029176  -0.118238  -0.342706   0.184234  -0.058403
     8  C    0.002281   0.002139  -0.148544  -0.042996  -0.398155  -0.091275
     9  C   -0.007998   0.015003  -0.238329  -0.140190  -0.465521   0.170782
    10  C   -0.003777   0.003014  -0.047541   0.014420  -0.222901  -0.048435
    11  C   -0.001091  -0.000459  -0.026772  -0.022755  -0.112541   0.003134
    12  C   -0.000025   0.000811  -0.023938   0.012306  -0.297155  -0.018619
    13  C    0.000039  -0.001223   0.001622   0.005717   0.098421  -0.008870
    14  H    0.464571  -0.139749   0.030333   0.000464  -0.001828   0.000001
    15  H    0.431364  -0.067727  -0.015965   0.000510  -0.001027  -0.000030
    16  H    0.410806  -0.062386  -0.003089  -0.000240   0.001657  -0.000009
    17  H   -0.044739   0.431281  -0.072033   0.003666  -0.001222  -0.000118
    18  H   -0.026074   0.436487  -0.091590   0.006776  -0.003677  -0.000111
    19  H   -0.016282  -0.058454   0.445424  -0.055912  -0.014633   0.000486
    20  H   -0.005566  -0.047678   0.489356  -0.048494  -0.068816  -0.000560
    21  H    0.005128  -0.001731  -0.014553   0.144342  -0.013611   0.002847
    22  H   -0.000066  -0.001468  -0.001795   0.009550  -0.035651   0.003253
    23  H    0.000022  -0.000046   0.004077   0.001344   0.036263  -0.001073
    24  H   -0.000005   0.000034  -0.001052   0.000758  -0.019594   0.000079
    25  H    0.000000  -0.000000   0.000043   0.000024   0.004177  -0.000001
    26  C   -0.000207   0.000187  -0.003875  -0.002697  -0.010215  -0.008590
    27  C   -0.000024   0.000017  -0.004224   0.001165  -0.138263   0.000556
    28  F    0.000000  -0.000000   0.000007   0.000003   0.001153  -0.000000
    29  F   -0.000000  -0.000000  -0.000007  -0.000001  -0.000865  -0.000000
    30  F    0.000000   0.000000   0.000000   0.000001   0.000236   0.000000
    31  F    0.000000   0.000000  -0.000043  -0.000012   0.001331  -0.001251
    32  F    0.000000  -0.000001   0.000047   0.000013   0.002984  -0.000025
    33  F    0.000000  -0.000002   0.000003   0.000006   0.001088   0.000089
    34  O    0.009115   0.007614   0.000247  -0.037758  -0.004960  -0.000154
    35  O   -0.001310  -0.005409   0.003910   0.006909  -0.002776   0.000202
    36  C   -0.006192  -0.011574   0.025144  -0.000267  -0.013194  -0.001305
    37  C    0.007855  -0.009999   0.054286  -0.035775  -0.045309  -0.001397
    38  C   -0.001034  -0.000540  -0.004874   0.003949   0.002401   0.000068
    39  H    0.000060   0.000201   0.000050  -0.000219  -0.000181  -0.000000
    40  H    0.000034   0.000034   0.000199  -0.000179  -0.000247  -0.000000
    41  H    0.000001   0.000017   0.000004   0.000001   0.000022  -0.000000
    42  H    0.000000   0.000005  -0.000009  -0.000006   0.000028   0.000000
    43  H    0.000001   0.000020   0.000002   0.000002   0.000048  -0.000000
               7          8          9         10         11         12
     1  C   -0.001045   0.002281  -0.007998  -0.003777  -0.001091  -0.000025
     2  C    0.029176   0.002139   0.015003   0.003014  -0.000459   0.000811
     3  C   -0.118238  -0.148544  -0.238329  -0.047541  -0.026772  -0.023938
     4  N   -0.342706  -0.042996  -0.140190   0.014420  -0.022755   0.012306
     5  C    0.184234  -0.398155  -0.465521  -0.222901  -0.112541  -0.297155
     6  O   -0.058403  -0.091275   0.170782  -0.048435   0.003134  -0.018619
     7  N    7.927597   0.222396  -0.041568  -0.098252  -0.067251  -0.033433
     8  C    0.222396  14.463314  -1.688782   0.172198  -4.362659   1.974804
     9  C   -0.041568  -1.688782  10.322125  -2.768604   1.154677  -3.512918
    10  C   -0.098252   0.172198  -2.768604  15.781713  -0.144581  -0.646503
    11  C   -0.067251  -4.362659   1.154677  -0.144581  11.438678  -2.937551
    12  C   -0.033433   1.974804  -3.512918  -0.646503  -2.937551  26.760716
    13  C   -0.008576  -1.555863   2.150675  -6.002156   0.114765  -9.340536
    14  H    0.000015  -0.000023  -0.000010  -0.000002  -0.000000  -0.000000
    15  H    0.000025  -0.000028  -0.000032   0.000004   0.000000  -0.000000
    16  H    0.000018   0.000063  -0.000008   0.000001  -0.000000   0.000000
    17  H   -0.000351  -0.000444   0.000059   0.000031  -0.000001   0.000004
    18  H    0.000241  -0.001608  -0.000236   0.000124   0.000013  -0.000012
    19  H   -0.001324   0.002470   0.000293   0.000303   0.000036  -0.000004
    20  H   -0.001007  -0.005575  -0.004195   0.000396   0.000015  -0.000099
    21  H    0.001330   0.009655  -0.004193  -0.005302  -0.002635   0.000040
    22  H    0.093024  -0.035189   0.036792  -0.029759   0.041818  -0.001227
    23  H   -0.018276   0.005430   0.351949  -0.003666  -0.008752  -0.006692
    24  H   -0.011226  -0.060261   0.013223   0.308631  -0.000011   0.007182
    25  H    0.000455   0.031755  -0.001814  -0.036047   0.369186  -0.051150
    26  C   -0.001763  -1.280854   1.591116   0.100388   1.268748  -2.693302
    27  C    0.012329  -0.716099  -0.840661  -0.370126  -0.939592  -2.242206
    28  F    0.000160   0.018339   0.055559   0.007286   0.033583   0.051954
    29  F   -0.000042   0.000223  -0.004903  -0.013348  -0.031804   0.164470
    30  F    0.000083   0.021380   0.002777   0.085271   0.089164  -0.088643
    31  F    0.000128   0.038370   0.004047  -0.001285   0.002065   0.002824
    32  F    0.000332   0.019850  -0.045644   0.022751   0.020595   0.031911
    33  F    0.000452   0.004689  -0.042632   0.003156   0.005517  -0.154343
    34  O    0.011359   0.015073   0.001302  -0.033363  -0.010869   0.001738
    35  O   -0.001185  -0.163471   0.007851   0.144783   0.031770  -0.002702
    36  C   -0.003459   0.102577  -0.049029  -0.017871  -0.061668   0.002579
    37  C   -0.034778   0.021248  -0.014579   0.003899  -0.054449   0.005517
    38  C    0.003997  -0.032346   0.002121   0.010975   0.025761  -0.002303
    39  H    0.000107  -0.000065  -0.000000  -0.000010  -0.000245  -0.000000
    40  H    0.000094  -0.000130  -0.000015   0.000090  -0.000225  -0.000004
    41  H   -0.000088  -0.000154  -0.000111   0.000154  -0.000352  -0.000207
    42  H    0.000033   0.000066   0.000001  -0.000109  -0.000037   0.000005
    43  H   -0.000084  -0.000107  -0.000098   0.000077  -0.000412  -0.000196
              13         14         15         16         17         18
     1  C    0.000039   0.464571   0.431364   0.410806  -0.044739  -0.026074
     2  C   -0.001223  -0.139749  -0.067727  -0.062386   0.431281   0.436487
     3  C    0.001622   0.030333  -0.015965  -0.003089  -0.072033  -0.091590
     4  N    0.005717   0.000464   0.000510  -0.000240   0.003666   0.006776
     5  C    0.098421  -0.001828  -0.001027   0.001657  -0.001222  -0.003677
     6  O   -0.008870   0.000001  -0.000030  -0.000009  -0.000118  -0.000111
     7  N   -0.008576   0.000015   0.000025   0.000018  -0.000351   0.000241
     8  C   -1.555863  -0.000023  -0.000028   0.000063  -0.000444  -0.001608
     9  C    2.150675  -0.000010  -0.000032  -0.000008   0.000059  -0.000236
    10  C   -6.002156  -0.000002   0.000004   0.000001   0.000031   0.000124
    11  C    0.114765  -0.000000   0.000000  -0.000000  -0.000001   0.000013
    12  C   -9.340536  -0.000000  -0.000000   0.000000   0.000004  -0.000012
    13  C   24.262061  -0.000000   0.000000   0.000001  -0.000003   0.000002
    14  H   -0.000000   0.508940  -0.027674  -0.027482  -0.003034  -0.002970
    15  H    0.000000  -0.027674   0.512719  -0.033449  -0.004587   0.003789
    16  H    0.000001  -0.027482  -0.033449   0.511708   0.003862  -0.004393
    17  H   -0.000003  -0.003034  -0.004587   0.003862   0.486419  -0.031777
    18  H    0.000002  -0.002970   0.003789  -0.004393  -0.031777   0.476271
    19  H   -0.000055  -0.000075  -0.000375   0.002874   0.004294  -0.005422
    20  H    0.000128  -0.000072   0.002833  -0.000318  -0.005590   0.004144
    21  H   -0.000394   0.000000   0.000001  -0.000003   0.000472   0.001319
    22  H    0.014835  -0.000000  -0.000000  -0.000000   0.000001   0.000002
    23  H   -0.062328   0.000000  -0.000000   0.000000  -0.000000  -0.000000
    24  H    0.036847  -0.000000  -0.000000   0.000000  -0.000000  -0.000000
    25  H    0.039154  -0.000000   0.000000   0.000000  -0.000000   0.000000
    26  C   -3.227865   0.000000   0.000000  -0.000000  -0.000000   0.000000
    27  C    0.713103  -0.000000  -0.000000   0.000000   0.000000  -0.000000
    28  F   -0.148484  -0.000000  -0.000000   0.000000  -0.000000  -0.000000
    29  F   -0.111547  -0.000000  -0.000000   0.000000   0.000000  -0.000000
    30  F   -0.046152  -0.000000  -0.000000   0.000000   0.000000  -0.000000
    31  F   -0.092308   0.000000  -0.000000   0.000000   0.000000  -0.000000
    32  F   -0.036366   0.000000   0.000000   0.000000  -0.000000   0.000000
    33  F    0.227499   0.000000  -0.000000  -0.000000   0.000000  -0.000000
    34  O   -0.002920  -0.000034  -0.000028  -0.000000  -0.001544  -0.003596
    35  O    0.003267  -0.000000  -0.000000   0.000000   0.000014  -0.000058
    36  C   -0.018899  -0.000156  -0.000048   0.000007  -0.000205  -0.001203
    37  C   -0.007756   0.000085  -0.000010  -0.000018  -0.000049  -0.000045
    38  C    0.002609  -0.000001   0.000000   0.000000  -0.000032  -0.000023
    39  H   -0.000011  -0.000000  -0.000000   0.000000   0.000000  -0.000000
    40  H   -0.000008  -0.000000   0.000000  -0.000000   0.000000  -0.000000
    41  H    0.000012   0.000000  -0.000000  -0.000000  -0.000000  -0.000000
    42  H   -0.000003   0.000000  -0.000000  -0.000000  -0.000000  -0.000000
    43  H    0.000003   0.000000  -0.000000  -0.000000  -0.000000   0.000000
              19         20         21         22         23         24
     1  C   -0.016282  -0.005566   0.005128  -0.000066   0.000022  -0.000005
     2  C   -0.058454  -0.047678  -0.001731  -0.001468  -0.000046   0.000034
     3  C    0.445424   0.489356  -0.014553  -0.001795   0.004077  -0.001052
     4  N   -0.055912  -0.048494   0.144342   0.009550   0.001344   0.000758
     5  C   -0.014633  -0.068816  -0.013611  -0.035651   0.036263  -0.019594
     6  O    0.000486  -0.000560   0.002847   0.003253  -0.001073   0.000079
     7  N   -0.001324  -0.001007   0.001330   0.093024  -0.018276  -0.011226
     8  C    0.002470  -0.005575   0.009655  -0.035189   0.005430  -0.060261
     9  C    0.000293  -0.004195  -0.004193   0.036792   0.351949   0.013223
    10  C    0.000303   0.000396  -0.005302  -0.029759  -0.003666   0.308631
    11  C    0.000036   0.000015  -0.002635   0.041818  -0.008752  -0.000011
    12  C   -0.000004  -0.000099   0.000040  -0.001227  -0.006692   0.007182
    13  C   -0.000055   0.000128  -0.000394   0.014835  -0.062328   0.036847
    14  H   -0.000075  -0.000072   0.000000  -0.000000   0.000000  -0.000000
    15  H   -0.000375   0.002833   0.000001  -0.000000  -0.000000  -0.000000
    16  H    0.002874  -0.000318  -0.000003  -0.000000   0.000000   0.000000
    17  H    0.004294  -0.005590   0.000472   0.000001  -0.000000  -0.000000
    18  H   -0.005422   0.004144   0.001319   0.000002  -0.000000  -0.000000
    19  H    0.532798  -0.048333   0.001421   0.000005  -0.000001   0.000000
    20  H   -0.048333   0.522576   0.001678   0.000008  -0.000001   0.000000
    21  H    0.001421   0.001678   0.245308   0.009413  -0.000000   0.000002
    22  H    0.000005   0.000008   0.009413   0.268819  -0.000189   0.006883
    23  H   -0.000001  -0.000001  -0.000000  -0.000189   0.400965  -0.000109
    24  H    0.000000   0.000000   0.000002   0.006883  -0.000109   0.424330
    25  H   -0.000000   0.000000   0.000000  -0.000009   0.000013  -0.003088
    26  C    0.000052   0.000008  -0.000105   0.001646  -0.013438   0.005735
    27  C    0.000000  -0.000002  -0.000021   0.000625   0.000176   0.010432
    28  F   -0.000000   0.000000  -0.000000   0.000000  -0.000004   0.000014
    29  F    0.000000  -0.000000  -0.000000   0.000000  -0.000003   0.000007
    30  F    0.000000  -0.000000   0.000000  -0.000000   0.000012   0.000058
    31  F    0.000000  -0.000000   0.000000  -0.000000   0.006562   0.000001
    32  F   -0.000000   0.000000  -0.000000  -0.000000   0.000370   0.000001
    33  F    0.000000  -0.000000  -0.000000   0.000000  -0.000190  -0.000000
    34  O    0.000109  -0.000223   0.082841  -0.001887   0.000001   0.000034
    35  O   -0.000006  -0.000010  -0.000883   0.097780  -0.000006  -0.002175
    36  C    0.000511   0.000840  -0.005310  -0.011678   0.000101   0.000006
    37  C    0.000001   0.000029   0.019953   0.022276   0.000020   0.000266
    38  C    0.000002   0.000007  -0.003207  -0.003078  -0.000003  -0.000162
    39  H    0.000000  -0.000000  -0.000004  -0.000030   0.000000   0.000000
    40  H   -0.000000  -0.000000  -0.000004  -0.000030   0.000000   0.000000
    41  H   -0.000000   0.000000  -0.000000  -0.000015   0.000000   0.000016
    42  H   -0.000000  -0.000000   0.000000  -0.000000  -0.000000  -0.000000
    43  H    0.000000  -0.000000  -0.000000  -0.000014   0.000000   0.000017
              25         26         27         28         29         30
     1  C    0.000000  -0.000207  -0.000024   0.000000  -0.000000   0.000000
     2  C   -0.000000   0.000187   0.000017  -0.000000  -0.000000   0.000000
     3  C    0.000043  -0.003875  -0.004224   0.000007  -0.000007   0.000000
     4  N    0.000024  -0.002697   0.001165   0.000003  -0.000001   0.000001
     5  C    0.004177  -0.010215  -0.138263   0.001153  -0.000865   0.000236
     6  O   -0.000001  -0.008590   0.000556  -0.000000  -0.000000   0.000000
     7  N    0.000455  -0.001763   0.012329   0.000160  -0.000042   0.000083
     8  C    0.031755  -1.280854  -0.716099   0.018339   0.000223   0.021380
     9  C   -0.001814   1.591116  -0.840661   0.055559  -0.004903   0.002777
    10  C   -0.036047   0.100388  -0.370126   0.007286  -0.013348   0.085271
    11  C    0.369186   1.268748  -0.939592   0.033583  -0.031804   0.089164
    12  C   -0.051150  -2.693302  -2.242206   0.051954   0.164470  -0.088643
    13  C    0.039154  -3.227865   0.713103  -0.148484  -0.111547  -0.046152
    14  H   -0.000000   0.000000  -0.000000  -0.000000  -0.000000  -0.000000
    15  H    0.000000   0.000000  -0.000000  -0.000000  -0.000000  -0.000000
    16  H    0.000000  -0.000000   0.000000   0.000000   0.000000   0.000000
    17  H   -0.000000  -0.000000   0.000000  -0.000000   0.000000   0.000000
    18  H    0.000000   0.000000  -0.000000  -0.000000  -0.000000  -0.000000
    19  H   -0.000000   0.000052   0.000000  -0.000000   0.000000   0.000000
    20  H    0.000000   0.000008  -0.000002   0.000000  -0.000000  -0.000000
    21  H    0.000000  -0.000105  -0.000021  -0.000000  -0.000000   0.000000
    22  H   -0.000009   0.001646   0.000625   0.000000   0.000000  -0.000000
    23  H    0.000013  -0.013438   0.000176  -0.000004  -0.000003   0.000012
    24  H   -0.003088   0.005735   0.010432   0.000014   0.000007   0.000058
    25  H    0.474546   0.004712  -0.062074   0.000167  -0.000452   0.004086
    26  C    0.004712  10.681704  -2.359912   0.178613   0.025026   0.023224
    27  C   -0.062074  -2.359912  11.060060  -0.082598   0.089204   0.012610
    28  F    0.000167   0.178613  -0.082598   9.281900  -0.054266  -0.042821
    29  F   -0.000452   0.025026   0.089204  -0.054266   9.255422  -0.048838
    30  F    0.004086   0.023224   0.012610  -0.042821  -0.048838   9.326066
    31  F    0.000013   0.145185   0.013336   0.000949   0.000081   0.000099
    32  F    0.000013  -0.034257   0.133780  -0.009875  -0.002771   0.001134
    33  F    0.000002   0.067708   0.018894  -0.001457  -0.000425   0.000048
    34  O   -0.000000  -0.000247   0.000001  -0.000000  -0.000000  -0.000000
    35  O    0.000070  -0.000671   0.000343  -0.000001  -0.000001   0.000001
    36  C    0.000053  -0.003391  -0.001282  -0.000000  -0.000005   0.000009
    37  C    0.000013  -0.000763  -0.000627   0.000000   0.000000   0.000002
    38  C   -0.000022   0.000260  -0.000024  -0.000000  -0.000000  -0.000003
    39  H    0.000000  -0.000000  -0.000000  -0.000000  -0.000000  -0.000000
    40  H    0.000000  -0.000000  -0.000000  -0.000000  -0.000000  -0.000000
    41  H   -0.000000   0.000000  -0.000010  -0.000000   0.000000  -0.000000
    42  H    0.000000  -0.000000   0.000000  -0.000000  -0.000000   0.000000
    43  H   -0.000000  -0.000000  -0.000008  -0.000000   0.000000  -0.000000
              31         32         33         34         35         36
     1  C    0.000000   0.000000   0.000000   0.009115  -0.001310  -0.006192
     2  C    0.000000  -0.000001  -0.000002   0.007614  -0.005409  -0.011574
     3  C   -0.000043   0.000047   0.000003   0.000247   0.003910   0.025144
     4  N   -0.000012   0.000013   0.000006  -0.037758   0.006909  -0.000267
     5  C    0.001331   0.002984   0.001088  -0.004960  -0.002776  -0.013194
     6  O   -0.001251  -0.000025   0.000089  -0.000154   0.000202  -0.001305
     7  N    0.000128   0.000332   0.000452   0.011359  -0.001185  -0.003459
     8  C    0.038370   0.019850   0.004689   0.015073  -0.163471   0.102577
     9  C    0.004047  -0.045644  -0.042632   0.001302   0.007851  -0.049029
    10  C   -0.001285   0.022751   0.003156  -0.033363   0.144783  -0.017871
    11  C    0.002065   0.020595   0.005517  -0.010869   0.031770  -0.061668
    12  C    0.002824   0.031911  -0.154343   0.001738  -0.002702   0.002579
    13  C   -0.092308  -0.036366   0.227499  -0.002920   0.003267  -0.018899
    14  H    0.000000   0.000000   0.000000  -0.000034  -0.000000  -0.000156
    15  H   -0.000000   0.000000  -0.000000  -0.000028  -0.000000  -0.000048
    16  H    0.000000   0.000000  -0.000000  -0.000000   0.000000   0.000007
    17  H    0.000000  -0.000000   0.000000  -0.001544   0.000014  -0.000205
    18  H   -0.000000   0.000000  -0.000000  -0.003596  -0.000058  -0.001203
    19  H    0.000000  -0.000000   0.000000   0.000109  -0.000006   0.000511
    20  H   -0.000000   0.000000  -0.000000  -0.000223  -0.000010   0.000840
    21  H    0.000000  -0.000000  -0.000000   0.082841  -0.000883  -0.005310
    22  H   -0.000000  -0.000000   0.000000  -0.001887   0.097780  -0.011678
    23  H    0.006562   0.000370  -0.000190   0.000001  -0.000006   0.000101
    24  H    0.000001   0.000001  -0.000000   0.000034  -0.002175   0.000006
    25  H    0.000013   0.000013   0.000002  -0.000000   0.000070   0.000053
    26  C    0.145185  -0.034257   0.067708  -0.000247  -0.000671  -0.003391
    27  C    0.013336   0.133780   0.018894   0.000001   0.000343  -0.001282
    28  F    0.000949  -0.009875  -0.001457  -0.000000  -0.000001  -0.000000
    29  F    0.000081  -0.002771  -0.000425  -0.000000  -0.000001  -0.000005
    30  F    0.000099   0.001134   0.000048  -0.000000   0.000001   0.000009
    31  F    9.300392  -0.044537  -0.047480  -0.000000   0.000001   0.000003
    32  F   -0.044537   9.282737  -0.053551  -0.000000   0.000000   0.000006
    33  F   -0.047480  -0.053551   9.232562  -0.000000  -0.000000   0.000000
    34  O   -0.000000  -0.000000  -0.000000   8.516807  -0.182235   0.539088
    35  O    0.000001   0.000000  -0.000000  -0.182235   8.577531   0.290143
    36  C    0.000003   0.000006   0.000000   0.539088   0.290143   5.736881
    37  C    0.000000   0.000000  -0.000000  -0.300656  -0.177767  -1.072300
    38  C   -0.000000  -0.000000   0.000000   0.034803   0.064787   0.055847
    39  H   -0.000000  -0.000000  -0.000000  -0.002223   0.001362  -0.083679
    40  H   -0.000000  -0.000000  -0.000000  -0.002642   0.001796  -0.082614
    41  H   -0.000000   0.000000  -0.000000   0.000133  -0.004823  -0.006959
    42  H   -0.000000  -0.000000  -0.000000  -0.000193   0.001999   0.034734
    43  H   -0.000000   0.000000  -0.000000   0.000135  -0.004811  -0.006950
              37         38         39         40         41         42
     1  C    0.007855  -0.001034   0.000060   0.000034   0.000001   0.000000
     2  C   -0.009999  -0.000540   0.000201   0.000034   0.000017   0.000005
     3  C    0.054286  -0.004874   0.000050   0.000199   0.000004  -0.000009
     4  N   -0.035775   0.003949  -0.000219  -0.000179   0.000001  -0.000006
     5  C   -0.045309   0.002401  -0.000181  -0.000247   0.000022   0.000028
     6  O   -0.001397   0.000068  -0.000000  -0.000000  -0.000000   0.000000
     7  N   -0.034778   0.003997   0.000107   0.000094  -0.000088   0.000033
     8  C    0.021248  -0.032346  -0.000065  -0.000130  -0.000154   0.000066
     9  C   -0.014579   0.002121  -0.000000  -0.000015  -0.000111   0.000001
    10  C    0.003899   0.010975  -0.000010   0.000090   0.000154  -0.000109
    11  C   -0.054449   0.025761  -0.000245  -0.000225  -0.000352  -0.000037
    12  C    0.005517  -0.002303  -0.000000  -0.000004  -0.000207   0.000005
    13  C   -0.007756   0.002609  -0.000011  -0.000008   0.000012  -0.000003
    14  H    0.000085  -0.000001  -0.000000  -0.000000   0.000000   0.000000
    15  H   -0.000010   0.000000  -0.000000   0.000000  -0.000000  -0.000000
    16  H   -0.000018   0.000000   0.000000  -0.000000  -0.000000  -0.000000
    17  H   -0.000049  -0.000032   0.000000   0.000000  -0.000000  -0.000000
    18  H   -0.000045  -0.000023  -0.000000  -0.000000  -0.000000  -0.000000
    19  H    0.000001   0.000002   0.000000  -0.000000  -0.000000  -0.000000
    20  H    0.000029   0.000007  -0.000000  -0.000000   0.000000  -0.000000
    21  H    0.019953  -0.003207  -0.000004  -0.000004  -0.000000   0.000000
    22  H    0.022276  -0.003078  -0.000030  -0.000030  -0.000015  -0.000000
    23  H    0.000020  -0.000003   0.000000   0.000000   0.000000  -0.000000
    24  H    0.000266  -0.000162   0.000000   0.000000   0.000016  -0.000000
    25  H    0.000013  -0.000022   0.000000   0.000000  -0.000000   0.000000
    26  C   -0.000763   0.000260  -0.000000  -0.000000   0.000000  -0.000000
    27  C   -0.000627  -0.000024  -0.000000  -0.000000  -0.000010   0.000000
    28  F    0.000000  -0.000000  -0.000000  -0.000000  -0.000000  -0.000000
    29  F    0.000000  -0.000000  -0.000000  -0.000000   0.000000  -0.000000
    30  F    0.000002  -0.000003  -0.000000  -0.000000  -0.000000   0.000000
    31  F    0.000000  -0.000000  -0.000000  -0.000000  -0.000000  -0.000000
    32  F    0.000000  -0.000000  -0.000000  -0.000000   0.000000  -0.000000
    33  F   -0.000000   0.000000  -0.000000  -0.000000  -0.000000  -0.000000
    34  O   -0.300656   0.034803  -0.002223  -0.002642   0.000133  -0.000193
    35  O   -0.177767   0.064787   0.001362   0.001796  -0.004823   0.001999
    36  C   -1.072300   0.055847  -0.083679  -0.082614  -0.006959   0.034734
    37  C    7.807118  -0.423842   0.451941   0.451647  -0.056576  -0.081591
    38  C   -0.423842   5.852636  -0.048634  -0.049410   0.420948   0.385757
    39  H    0.451941  -0.048634   0.503312  -0.029923  -0.003905  -0.002063
    40  H    0.451647  -0.049410  -0.029923   0.503346   0.003703  -0.002064
    41  H   -0.056576   0.420948  -0.003905   0.003703   0.488862  -0.029847
    42  H   -0.081591   0.385757  -0.002063  -0.002064  -0.029847   0.549008
    43  H   -0.057223   0.421644   0.003704  -0.003899  -0.027286  -0.029868
              43
     1  C    0.000001
     2  C    0.000020
     3  C    0.000002
     4  N    0.000002
     5  C    0.000048
     6  O   -0.000000
     7  N   -0.000084
     8  C   -0.000107
     9  C   -0.000098
    10  C    0.000077
    11  C   -0.000412
    12  C   -0.000196
    13  C    0.000003
    14  H    0.000000
    15  H   -0.000000
    16  H   -0.000000
    17  H   -0.000000
    18  H    0.000000
    19  H    0.000000
    20  H   -0.000000
    21  H   -0.000000
    22  H   -0.000014
    23  H    0.000000
    24  H    0.000017
    25  H   -0.000000
    26  C   -0.000000
    27  C   -0.000008
    28  F   -0.000000
    29  F    0.000000
    30  F   -0.000000
    31  F   -0.000000
    32  F    0.000000
    33  F   -0.000000
    34  O    0.000135
    35  O   -0.004811
    36  C   -0.006950
    37  C   -0.057223
    38  C    0.421644
    39  H    0.003704
    40  H   -0.003899
    41  H   -0.027286
    42  H   -0.029868
    43  H    0.489157
 Mulliken charges:
               1
     1  C   -0.792309
     2  C   -0.355563
     3  C   -0.130551
     4  N   -0.760602
     5  C    0.768883
     6  O   -0.607539
     7  N   -0.644530
     8  C   -0.543691
     9  C   -0.008283
    10  C   -0.166027
    11  C    0.187189
    12  C   -0.963094
    13  C   -0.998441
    14  H    0.198700
    15  H    0.199735
    16  H    0.200398
    17  H    0.235628
    18  H    0.243630
    19  H    0.209796
    20  H    0.214522
    21  H    0.526207
    22  H    0.515354
    23  H    0.307470
    24  H    0.283128
    25  H    0.226174
    26  C    1.547839
    27  C    1.691120
    28  F   -0.290181
    29  F   -0.265157
    30  F   -0.339806
    31  F   -0.328470
    32  F   -0.289498
    33  F   -0.261633
    34  O   -0.634871
    35  O   -0.684219
    36  C    0.670709
    37  C   -0.470647
    38  C   -0.719034
    39  H    0.210453
    40  H    0.210452
    41  H    0.216462
    42  H    0.174152
    43  H    0.216145
 Sum of Mulliken charges =  -1.00000
 Mulliken charges with hydrogens summed into heavy atoms:
               1
     1  C   -0.193476
     2  C    0.123695
     3  C    0.293768
     4  N   -0.234395
     5  C    0.768883
     6  O   -0.607539
     7  N   -0.129176
     8  C   -0.543691
     9  C    0.299187
    10  C    0.117101
    11  C    0.413363
    12  C   -0.963094
    13  C   -0.998441
    26  C    1.547839
    27  C    1.691120
    28  F   -0.290181
    29  F   -0.265157
    30  F   -0.339806
    31  F   -0.328470
    32  F   -0.289498
    33  F   -0.261633
    34  O   -0.634871
    35  O   -0.684219
    36  C    0.670709
    37  C   -0.049742
    38  C   -0.112275
         Mulliken charges condensed to fragments:
      1     -0.189603
      2     -0.810397
 Electronic spatial extent (au):  <R**2>=          14072.4934
 Charge=             -1.0000 electrons
 Dipole moment (field-independent basis, Debye):
    X=              2.2966    Y=              0.2354    Z=              0.0581  Tot=              2.3093
 Quadrupole moment (field-independent basis, Debye-Ang):
   XX=           -226.7513   YY=           -180.1233   ZZ=           -156.8128
   XY=             10.4668   XZ=             -0.3126   YZ=             -0.3081
 Traceless Quadrupole moment (field-independent basis, Debye-Ang):
   XX=            -38.8555   YY=              7.7725   ZZ=             31.0830
   XY=             10.4668   XZ=             -0.3126   YZ=             -0.3081
 Octapole moment (field-independent basis, Debye-Ang**2):
  XXX=            147.9096  YYY=             -9.4610  ZZZ=             -0.3135  XYY=             74.4911
  XXY=            -47.5098  XXZ=             -0.1325  XZZ=             33.7182  YZZ=             -6.5079
  YYZ=              1.0912  XYZ=             -1.6601
 Hexadecapole moment (field-independent basis, Debye-Ang**3):
 XXXX=         -14577.0705 YYYY=          -4945.6384 ZZZZ=           -330.8480 XXXY=             34.9687
 XXXZ=            -15.5521 YYYX=             20.4339 YYYZ=              5.0741 ZZZX=              0.0006
 ZZZY=             -1.2484 XXYY=          -3174.8617 XXZZ=          -2228.6044 YYZZ=           -819.4544
 XXYZ=             -4.7602 YYXZ=              3.5757 ZZXY=            -14.0192
 N-N= 2.474900502846D+03 E-N=-8.532397199860D+03  KE= 1.503783127187D+03
 CPIOFr:  IOpCl= 0 IRwI=-1 IRwCP=  731 ICalc= -1 LCPTot=      433210 Len1MO=     1123762 IndFrg=      433210
 CPIOFr:  IOpCl= 0 IRwI=-1 IRwCP=  731 ICalc=  0 LCPTot=      433210 Len1MO=     1123762 IndFrg=     1556972
 Counterpoise: doing DCBS calculation for fragment   1 NewBq=T
 Basis read from rwf:  (6D, 7F)
 There are   528 symmetry adapted cartesian basis functions of A   symmetry.
 There are   528 symmetry adapted basis functions of A   symmetry.
   528 basis functions,   900 primitive gaussians,   528 cartesian basis functions
    80 alpha electrons       80 beta electrons
       nuclear repulsion energy      1777.3047868700 Hartrees.
 NAtoms=   43 NActive=   43 NUniq=   43 SFac= 1.00D+00 NAtFMM=   60 NAOKFM=F Big=F
 Integral buffers will be    131072 words long.
 Raffenetti 2 integral format.
 Two-electron integral symmetry is turned on.
 One-electron integrals computed using PRISM.
 NBasis=   528 RedAO= T EigKep=  1.36D-06  NBF=   528
 NBsUse=   525 1.00D-06 EigRej=  9.76D-07 NBFU=   525
 ExpMin= 4.38D-02 ExpMax= 7.00D+03 ExpMxC= 1.05D+03 IAcc=3 IRadAn=         5 AccDes= 0.00D+00
 Harris functional with IExCor= 1009 and IRadAn=       5 diagonalized for initial guess.
 HarFok:  IExCor= 1009 AccDes= 0.00D+00 IRadAn=         5 IDoV= 1 UseB2=F ITyADJ=14
 ICtDFT=  3500011 ScaDFX=  1.000000  1.000000  1.000000  1.000000
 FoFCou: FMM=F IPFlag=           0 FMFlag=      100000 FMFlg1=           0
         NFxFlg=           0 DoJE=T BraDBF=F KetDBF=T FulRan=T
         wScrn=  0.000000 ICntrl=     500 IOpCl=  0 I1Cent=   200000004 NGrid=           0
         NMat0=    1 NMatS0=      1 NMatT0=    0 NMatD0=    1 NMtDS0=    0 NMtDT0=    0
 Petite list used in FoFCou.
 Requested convergence on RMS density matrix=1.00D-08 within 128 cycles.
 Requested convergence on MAX density matrix=1.00D-06.
 Requested convergence on             energy=1.00D-06.
 No special actions if energy rises.
 SCF Done:  E(RM062X) =  -1247.91466090     A.U. after   16 cycles
            NFock= 16  Conv=0.34D-08     -V/T= 2.0079

 **********************************************************************

            Population analysis using the SCF density.

 **********************************************************************

 Orbital symmetries:
       Occupied  (A) (A) (A) (A) (A) (A) (A) (A) (A) (A) (A) (A)
                 (A) (A) (A) (A) (A) (A) (A) (A) (A) (A) (A) (A)
                 (A) (A) (A) (A) (A) (A) (A) (A) (A) (A) (A) (A)
                 (A) (A) (A) (A) (A) (A) (A) (A) (A) (A) (A) (A)
                 (A) (A) (A) (A) (A) (A) (A) (A) (A) (A) (A) (A)
                 (A) (A) (A) (A) (A) (A) (A) (A) (A) (A) (A) (A)
                 (A) (A) (A) (A) (A) (A) (A) (A)
       Virtual   (A) (A) (A) (A) (A) (A) (A) (A) (A) (A) (A) (A)
                 (A) (A) (A) (A) (A) (A) (A) (A) (A) (A) (A) (A)
                 (A) (A) (A) (A) (A) (A) (A) (A) (A) (A) (A) (A)
                 (A) (A) (A) (A) (A) (A) (A) (A) (A) (A) (A) (A)
                 (A) (A) (A) (A) (A) (A) (A) (A) (A) (A) (A) (A)
                 (A) (A) (A) (A) (A) (A) (A) (A) (A) (A) (A) (A)
                 (A) (A) (A) (A) (A) (A) (A) (A) (A) (A) (A) (A)
                 (A) (A) (A) (A) (A) (A) (A) (A) (A) (A) (A) (A)
                 (A) (A) (A) (A) (A) (A) (A) (A) (A) (A) (A) (A)
                 (A) (A) (A) (A) (A) (A) (A) (A) (A) (A) (A) (A)
                 (A) (A) (A) (A) (A) (A) (A) (A) (A) (A) (A) (A)
                 (A) (A) (A) (A) (A) (A) (A) (A) (A) (A) (A) (A)
                 (A) (A) (A) (A) (A) (A) (A) (A) (A) (A) (A) (A)
                 (A) (A) (A) (A) (A) (A) (A) (A) (A) (A) (A) (A)
                 (A) (A) (A) (A) (A) (A) (A) (A) (A) (A) (A) (A)
                 (A) (A) (A) (A) (A) (A) (A) (A) (A) (A) (A) (A)
                 (A) (A) (A) (A) (A) (A) (A) (A) (A) (A) (A) (A)
                 (A) (A) (A) (A) (A) (A) (A) (A) (A) (A) (A) (A)
                 (A) (A) (A) (A) (A) (A) (A) (A) (A) (A) (A) (A)
                 (A) (A) (A) (A) (A) (A) (A) (A) (A) (A) (A) (A)
                 (A) (A) (A) (A) (A) (A) (A) (A) (A) (A) (A) (A)
                 (A) (A) (A) (A) (A) (A) (A) (A) (A) (A) (A) (A)
                 (A) (A) (A) (A) (A) (A) (A) (A) (A) (A) (A) (A)
                 (A) (A) (A) (A) (A) (A) (A) (A) (A) (A) (A) (A)
                 (A) (A) (A) (A) (A) (A) (A) (A) (A) (A) (A) (A)
                 (A) (A) (A) (A) (A) (A) (A) (A) (A) (A) (A) (A)
                 (A) (A) (A) (A) (A) (A) (A) (A) (A) (A) (A) (A)
                 (A) (A) (A) (A) (A) (A) (A) (A) (A) (A) (A) (A)
                 (A) (A) (A) (A) (A) (A) (A) (A) (A) (A) (A) (A)
                 (A) (A) (A) (A) (A) (A) (A) (A) (A) (A) (A) (A)
                 (A) (A) (A) (A) (A) (A) (A) (A) (A) (A) (A) (A)
                 (A) (A) (A) (A) (A) (A) (A) (A) (A) (A) (A) (A)
                 (A) (A) (A) (A) (A) (A) (A) (A) (A) (A) (A) (A)
                 (A) (A) (A) (A) (A) (A) (A) (A) (A) (A) (A) (A)
                 (A) (A) (A) (A) (A) (A) (A) (A) (A) (A) (A) (A)
                 (A) (A) (A) (A) (A) (A) (A) (A) (A) (A) (A) (A)
                 (A) (A) (A) (A) (A) (A) (A) (A) (A) (A) (A) (A)
                 (A)
 The electronic state is 1-A.
 Alpha  occ. eigenvalues --  -25.29958 -25.29772 -25.29509 -25.29457 -25.29212
 Alpha  occ. eigenvalues --  -25.29188 -19.63264 -14.83503 -14.81559 -10.81464
 Alpha  occ. eigenvalues --  -10.81327 -10.70972 -10.63927 -10.60897 -10.60133
 Alpha  occ. eigenvalues --  -10.60124 -10.59286 -10.58922 -10.58117 -10.57341
 Alpha  occ. eigenvalues --  -10.55803  -1.46432  -1.45990  -1.37167  -1.36742
 Alpha  occ. eigenvalues --   -1.36631  -1.36381  -1.19732  -1.08958  -1.05902
 Alpha  occ. eigenvalues --   -1.00020  -0.91728  -0.90417  -0.89319  -0.82969
 Alpha  occ. eigenvalues --   -0.81560  -0.79168  -0.75129  -0.74216  -0.71419
 Alpha  occ. eigenvalues --   -0.70470  -0.69098  -0.68656  -0.68549  -0.68136
 Alpha  occ. eigenvalues --   -0.68040  -0.66129  -0.64832  -0.60546  -0.58175
 Alpha  occ. eigenvalues --   -0.57270  -0.57132  -0.56688  -0.56537  -0.56441
 Alpha  occ. eigenvalues --   -0.55131  -0.54877  -0.54480  -0.52916  -0.52555
 Alpha  occ. eigenvalues --   -0.52206  -0.51778  -0.51411  -0.50408  -0.50361
 Alpha  occ. eigenvalues --   -0.50117  -0.49470  -0.49249  -0.49067  -0.46641
 Alpha  occ. eigenvalues --   -0.45652  -0.44983  -0.43911  -0.42677  -0.42282
 Alpha  occ. eigenvalues --   -0.40631  -0.36464  -0.34628  -0.34274  -0.29741
 Alpha virt. eigenvalues --   -0.03119  -0.02521  -0.00833   0.00495   0.01648
 Alpha virt. eigenvalues --    0.01810   0.02007   0.03084   0.03779   0.04315
 Alpha virt. eigenvalues --    0.04549   0.04820   0.05368   0.05455   0.05697
 Alpha virt. eigenvalues --    0.06366   0.06547   0.07042   0.07278   0.07894
 Alpha virt. eigenvalues --    0.08073   0.08180   0.08237   0.08727   0.09084
 Alpha virt. eigenvalues --    0.09374   0.10082   0.10726   0.10887   0.11482
 Alpha virt. eigenvalues --    0.11585   0.11999   0.12262   0.12735   0.13075
 Alpha virt. eigenvalues --    0.13305   0.13617   0.14037   0.14336   0.15110
 Alpha virt. eigenvalues --    0.15468   0.15716   0.16008   0.16421   0.17297
 Alpha virt. eigenvalues --    0.17414   0.17609   0.18034   0.18109   0.18769
 Alpha virt. eigenvalues --    0.19167   0.19546   0.19927   0.20176   0.20591
 Alpha virt. eigenvalues --    0.20696   0.20747   0.21336   0.21465   0.21850
 Alpha virt. eigenvalues --    0.22337   0.22792   0.22990   0.23179   0.23657
 Alpha virt. eigenvalues --    0.24290   0.24699   0.24757   0.25136   0.25694
 Alpha virt. eigenvalues --    0.25915   0.26558   0.27040   0.27253   0.27442
 Alpha virt. eigenvalues --    0.27654   0.27881   0.28091   0.28369   0.28726
 Alpha virt. eigenvalues --    0.29126   0.29722   0.30189   0.30420   0.31008
 Alpha virt. eigenvalues --    0.31111   0.31423   0.31612   0.32304   0.32735
 Alpha virt. eigenvalues --    0.33163   0.33331   0.33822   0.33970   0.34012
 Alpha virt. eigenvalues --    0.34640   0.35609   0.35979   0.36154   0.36435
 Alpha virt. eigenvalues --    0.36980   0.37245   0.37982   0.38286   0.38751
 Alpha virt. eigenvalues --    0.39383   0.39499   0.40024   0.40222   0.40520
 Alpha virt. eigenvalues --    0.40756   0.41282   0.41383   0.41766   0.42575
 Alpha virt. eigenvalues --    0.42626   0.43118   0.43645   0.44447   0.44619
 Alpha virt. eigenvalues --    0.44735   0.45525   0.46022   0.46528   0.46762
 Alpha virt. eigenvalues --    0.47836   0.48092   0.49285   0.49932   0.50211
 Alpha virt. eigenvalues --    0.51146   0.51370   0.51807   0.53035   0.53623
 Alpha virt. eigenvalues --    0.54347   0.54784   0.55132   0.56238   0.57505
 Alpha virt. eigenvalues --    0.58573   0.58950   0.59954   0.60366   0.61676
 Alpha virt. eigenvalues --    0.63588   0.64167   0.66174   0.67055   0.68054
 Alpha virt. eigenvalues --    0.68326   0.70106   0.70376   0.72293   0.72807
 Alpha virt. eigenvalues --    0.73483   0.74060   0.74395   0.74678   0.74942
 Alpha virt. eigenvalues --    0.75538   0.76248   0.76352   0.77291   0.77467
 Alpha virt. eigenvalues --    0.78256   0.79830   0.80911   0.81681   0.81808
 Alpha virt. eigenvalues --    0.82642   0.83461   0.84403   0.85193   0.85862
 Alpha virt. eigenvalues --    0.86683   0.86854   0.87597   0.88737   0.89439
 Alpha virt. eigenvalues --    0.91049   0.91728   0.92392   0.93289   0.93610
 Alpha virt. eigenvalues --    0.94696   0.96210   0.96744   0.96921   0.98962
 Alpha virt. eigenvalues --    0.99429   1.01006   1.02016   1.02674   1.03626
 Alpha virt. eigenvalues --    1.04521   1.04597   1.07384   1.08035   1.08858
 Alpha virt. eigenvalues --    1.10033   1.12250   1.13475   1.16470   1.17164
 Alpha virt. eigenvalues --    1.18451   1.18940   1.19758   1.20923   1.21216
 Alpha virt. eigenvalues --    1.22610   1.22954   1.24313   1.26267   1.27006
 Alpha virt. eigenvalues --    1.27665   1.29442   1.30390   1.31858   1.33158
 Alpha virt. eigenvalues --    1.34416   1.35275   1.37756   1.38488   1.41302
 Alpha virt. eigenvalues --    1.41800   1.42788   1.42982   1.43692   1.46566
 Alpha virt. eigenvalues --    1.48054   1.48402   1.48625   1.49633   1.50059
 Alpha virt. eigenvalues --    1.51794   1.54827   1.55072   1.56942   1.57876
 Alpha virt. eigenvalues --    1.63466   1.64557   1.65041   1.65985   1.67089
 Alpha virt. eigenvalues --    1.69323   1.69459   1.70054   1.71314   1.72587
 Alpha virt. eigenvalues --    1.73315   1.74074   1.74942   1.75469   1.75999
 Alpha virt. eigenvalues --    1.76097   1.76865   1.77286   1.77994   1.78174
 Alpha virt. eigenvalues --    1.79843   1.80576   1.80695   1.81229   1.82838
 Alpha virt. eigenvalues --    1.84657   1.84981   1.85647   1.86292   1.86924
 Alpha virt. eigenvalues --    1.87241   1.89118   1.89615   1.90020   1.91334
 Alpha virt. eigenvalues --    1.91522   1.92029   1.92471   1.93135   1.93700
 Alpha virt. eigenvalues --    1.94165   1.95367   1.95903   1.96899   1.97299
 Alpha virt. eigenvalues --    1.97786   1.98843   1.99691   2.00873   2.01467
 Alpha virt. eigenvalues --    2.03196   2.03649   2.04858   2.05354   2.05737
 Alpha virt. eigenvalues --    2.06677   2.08365   2.09585   2.11292   2.11996
[...]
    11  C    0.344537  -0.181223   0.358482  -0.007821  -0.060038   0.015175
    12  C   -0.055999  -2.203796  -1.465350  -0.023410   0.146276  -0.082366
    13  C    0.061851  -1.741174  -1.358068  -0.042896  -0.063291   0.018603
    14  H   -0.000000   0.000000  -0.000000  -0.000000  -0.000000  -0.000000
    15  H    0.000000   0.000000  -0.000000  -0.000000  -0.000000  -0.000000
    16  H    0.000000  -0.000000   0.000000   0.000000   0.000000   0.000000
    17  H   -0.000000  -0.000001   0.000000  -0.000000   0.000000   0.000000
    18  H    0.000000   0.000001  -0.000000   0.000000  -0.000000  -0.000000
    19  H   -0.000000   0.000025   0.000001  -0.000000   0.000000   0.000000
    20  H    0.000000  -0.000008  -0.000001   0.000000  -0.000000  -0.000000
    21  H   -0.000000  -0.000050  -0.000003  -0.000000   0.000000   0.000000
    22  H   -0.000014   0.001418   0.001452   0.000000   0.000000   0.000000
    23  H    0.000012   0.013714  -0.002666  -0.000003  -0.000004   0.000010
    24  H   -0.003480   0.002691   0.015926   0.000015   0.000002   0.000105
    25  H    0.450324   0.009720  -0.064218   0.000198  -0.000302   0.004488
    26  C    0.009720  10.597586  -2.474905   0.171004   0.004302   0.028819
    27  C   -0.064218  -2.474905  10.861752  -0.036527   0.115797   0.031123
    28  F    0.000198   0.171004  -0.036527   9.259272  -0.052387  -0.043758
    29  F   -0.000302   0.004302   0.115797  -0.052387   9.226406  -0.047735
    30  F    0.004488   0.028819   0.031123  -0.043758  -0.047735   9.305907
    31  F    0.000012   0.090626   0.017564   0.001108  -0.000010   0.000086
    32  F    0.000015  -0.025839   0.157462  -0.011187  -0.001590   0.001225
    33  F    0.000004   0.057153   0.002100  -0.001605  -0.000789   0.000024
              31         32         33
     1  C   -0.000000   0.000000   0.000000
     2  C    0.000006  -0.000000  -0.000002
     3  C   -0.000071   0.000018   0.000006
     4  N   -0.000007   0.000003   0.000005
     5  C    0.000169   0.001252   0.001125
     6  O   -0.000627  -0.000010   0.000060
     7  N   -0.000914   0.000135   0.000344
     8  C    0.136710   0.027377   0.017963
     9  C    0.074454   0.004862  -0.028534
    10  C   -0.008506   0.003201  -0.013428
    11  C    0.021497   0.029772   0.029771
    12  C   -0.045808  -0.042156  -0.125452
    13  C   -0.172432  -0.028382   0.202031
    14  H    0.000000  -0.000000   0.000000
    15  H   -0.000000   0.000000   0.000000
    16  H   -0.000000   0.000000  -0.000000
    17  H   -0.000000   0.000000  -0.000000
    18  H    0.000000   0.000000   0.000000
    19  H    0.000000  -0.000000   0.000000
    20  H    0.000000   0.000000  -0.000000
    21  H    0.000000  -0.000000  -0.000000
    22  H    0.000000  -0.000000   0.000000
    23  H    0.006883   0.000392  -0.000094
    24  H   -0.000001   0.000001  -0.000001
    25  H    0.000012   0.000015   0.000004
    26  C    0.090626  -0.025839   0.057153
    27  C    0.017564   0.157462   0.002100
    28  F    0.001108  -0.011187  -0.001605
    29  F   -0.000010  -0.001590  -0.000789
    30  F    0.000086   0.001225   0.000024
    31  F    9.289663  -0.043667  -0.047081
    32  F   -0.043667   9.255680  -0.051570
    33  F   -0.047081  -0.051570   9.206678
 Mulliken charges:
               1
     1  C   -0.717085
     2  C   -0.377162
     3  C   -0.121229
     4  N   -0.687413
     5  C    0.771947
     6  O   -0.568452
     7  N   -0.598121
     8  C   -0.390171
     9  C    0.244450
    10  C   -0.405163
    11  C   -0.314404
    12  C   -0.672791
    13  C   -0.793435
    14  H    0.216625
    15  H    0.217515
    16  H    0.217354
    17  H    0.221836
    18  H    0.216812
    19  H    0.232503
    20  H    0.238083
    21  H    0.403823
    22  H    0.402648
    23  H    0.313786
    24  H    0.200178
    25  H    0.247708
    26  C    1.622086
    27  C    1.586113
    28  F   -0.279100
    29  F   -0.254406
    30  F   -0.329182
    31  F   -0.319653
    32  F   -0.276993
    33  F   -0.248708
    34  O    0.000000
    35  O    0.000000
    36  C    0.000000
    37  C    0.000000
    38  C    0.000000
    39  H    0.000000
    40  H    0.000000
    41  H    0.000000
    42  H    0.000000
    43  H    0.000000
 Sum of Mulliken charges =  -0.00000
 Mulliken charges with hydrogens summed into heavy atoms:
               1
     1  C   -0.065591
     2  C    0.061486
     3  C    0.349358
     4  N   -0.283589
     5  C    0.771947
     6  O   -0.568452
     7  N   -0.195473
     8  C   -0.390171
     9  C    0.558236
    10  C   -0.204985
    11  C   -0.066696
    12  C   -0.672791
    13  C   -0.793435
    26  C    1.622086
    27  C    1.586113
    28  F   -0.279100
    29  F   -0.254406
    30  F   -0.329182
    31  F   -0.319653
    32  F   -0.276993
    33  F   -0.248708
    34  O    0.000000
    35  O    0.000000
    36  C    0.000000
    37  C    0.000000
    38  C    0.000000
         Mulliken charges condensed to fragments:
      1     -0.000000
      2      0.000000
 Electronic spatial extent (au):  <R**2>=          10380.0636
 Charge=             -0.0000 electrons
 Dipole moment (field-independent basis, Debye):
    X=             -9.5600    Y=              3.4672    Z=              0.0195  Tot=             10.1693
 Quadrupole moment (field-independent basis, Debye-Ang):
   XX=           -123.2930   YY=           -124.4861   ZZ=           -123.9790
   XY=              3.9358   XZ=             -0.0604   YZ=             -0.2935
 Traceless Quadrupole moment (field-independent basis, Debye-Ang):
   XX=              0.6264   YY=             -0.5667   ZZ=             -0.0596
   XY=              3.9358   XZ=             -0.0604   YZ=             -0.2935
 Octapole moment (field-independent basis, Debye-Ang**2):
  XXX=           -461.7749  YYY=            280.1638  ZZZ=             -2.1026  XYY=           -106.8170
  XXY=             50.5175  XXZ=             -1.5759  XZZ=            -85.4968  YZZ=             81.7353
  YYZ=              0.6821  XYZ=             -0.8991
 Hexadecapole moment (field-independent basis, Debye-Ang**3):
 XXXX=          -9772.7711 YYYY=          -2555.6931 ZZZZ=           -278.2682 XXXY=           -916.0264
 XXXZ=             -2.2537 YYYX=          -1023.8045 YYYZ=             -0.8637 ZZZX=              8.2430
 ZZZY=             -5.5202 XXYY=          -2003.0108 XXZZ=          -1700.3665 YYZZ=           -467.1967
 XXYZ=             -9.2958 YYXZ=              4.7084 ZZXY=           -352.1150
 N-N= 1.777304786870D+03 E-N=-6.487105400720D+03  KE= 1.238058563642D+03
 CPIOFr:  IOpCl= 0 IRwI=-1 IRwCP=  731 ICalc=  3 LCPTot=      433210 Len1MO=     1123762 IndFrg=     4928258
 Counterpoise: doing MCBS calculation for fragment   2
 Basis read from rwf:  (6D, 7F)
 There are   105 symmetry adapted cartesian basis functions of A   symmetry.
 There are   105 symmetry adapted basis functions of A   symmetry.
   105 basis functions,   180 primitive gaussians,   105 cartesian basis functions
    20 alpha electrons       20 beta electrons
       nuclear repulsion energy       168.5442407469 Hartrees.
 NAtoms=   43 NActive=   10 NUniq=   10 SFac= 1.00D+00 NAtFMM=   60 NAOKFM=F Big=F
 Integral buffers will be    131072 words long.
 Raffenetti 2 integral format.
 Two-electron integral symmetry is turned on.
 One-electron integrals computed using PRISM.
 NBasis=   105 RedAO= T EigKep=  1.22D-04  NBF=   105
 NBsUse=   105 1.00D-06 EigRej= -1.00D+00 NBFU=   105
 ExpMin= 4.38D-02 ExpMax= 5.48D+03 ExpMxC= 8.25D+02 IAcc=3 IRadAn=         5 AccDes= 0.00D+00
 Harris functional with IExCor= 1009 and IRadAn=       5 diagonalized for initial guess.
 HarFok:  IExCor= 1009 AccDes= 0.00D+00 IRadAn=         5 IDoV= 1 UseB2=F ITyADJ=14
 ICtDFT=  3500011 ScaDFX=  1.000000  1.000000  1.000000  1.000000
 FoFCou: FMM=F IPFlag=           0 FMFlag=      100000 FMFlg1=           0
         NFxFlg=           0 DoJE=T BraDBF=F KetDBF=T FulRan=T
         wScrn=  0.000000 ICntrl=     500 IOpCl=  0 I1Cent=   200000004 NGrid=           0
         NMat0=    1 NMatS0=      1 NMatT0=    0 NMatD0=    1 NMtDS0=    0 NMtDT0=    0
 Petite list used in FoFCou.
 Keep R1 ints in memory in canonical form, NReq=16474728.
 Requested convergence on RMS density matrix=1.00D-08 within 128 cycles.
 Requested convergence on MAX density matrix=1.00D-06.
 Requested convergence on             energy=1.00D-06.
 No special actions if energy rises.
 SCF Done:  E(RM062X) =  -267.728465161     A.U. after   14 cycles
            NFock= 14  Conv=0.40D-08     -V/T= 2.0084

 **********************************************************************

            Population analysis using the SCF density.

 **********************************************************************

 Orbital symmetries:
       Occupied  (A) (A) (A) (A) (A) (A) (A) (A) (A) (A) (A) (A)
                 (A) (A) (A) (A) (A) (A) (A) (A)
       Virtual   (A) (A) (A) (A) (A) (A) (A) (A) (A) (A) (A) (A)
                 (A) (A) (A) (A) (A) (A) (A) (A) (A) (A) (A) (A)
                 (A) (A) (A) (A) (A) (A) (A) (A) (A) (A) (A) (A)
                 (A) (A) (A) (A) (A) (A) (A) (A) (A) (A) (A) (A)
                 (A) (A) (A) (A) (A) (A) (A) (A) (A) (A) (A) (A)
                 (A) (A) (A) (A) (A) (A) (A) (A) (A) (A) (A) (A)
                 (A) (A) (A) (A) (A) (A) (A) (A) (A) (A) (A) (A)
                 (A)
 The electronic state is 1-A.
 Alpha  occ. eigenvalues --  -19.38302 -19.37990 -10.43617 -10.38687 -10.37530
 Alpha  occ. eigenvalues --   -0.94225  -0.84515  -0.69918  -0.56020  -0.39486
 Alpha  occ. eigenvalues --   -0.36279  -0.33514  -0.30139  -0.27619  -0.27397
 Alpha  occ. eigenvalues --   -0.25013  -0.22638  -0.10884  -0.10845  -0.10173
 Alpha virt. eigenvalues --    0.14617   0.16484   0.18637   0.19569   0.21555
 Alpha virt. eigenvalues --    0.21832   0.22417   0.22880   0.23465   0.25912
 Alpha virt. eigenvalues --    0.28390   0.29729   0.30030   0.38011   0.38906
 Alpha virt. eigenvalues --    0.42278   0.42498   0.43635   0.45463   0.46254
 Alpha virt. eigenvalues --    0.46735   0.48000   0.49569   0.49788   0.50772
 Alpha virt. eigenvalues --    0.55100   0.56097   0.57225   0.71688   0.75185
 Alpha virt. eigenvalues --    0.84454   0.86642   0.89654   0.92069   0.94821
 Alpha virt. eigenvalues --    0.99474   1.01985   1.08484   1.10006   1.14582
 Alpha virt. eigenvalues --    1.20094   1.21326   1.31088   1.32749   1.33993
 Alpha virt. eigenvalues --    1.34580   1.49195   1.54776   1.57822   1.59177
 Alpha virt. eigenvalues --    1.61030   1.63162   1.63275   1.74399   1.78264
 Alpha virt. eigenvalues --    1.80808   1.86856   2.02621   2.02730   2.08638
 Alpha virt. eigenvalues --    2.10118   2.12089   2.14394   2.16400   2.22707
 Alpha virt. eigenvalues --    2.26495   2.28177   2.29472   2.45073   2.52359
 Alpha virt. eigenvalues --    2.54104   2.54320   2.73513   2.74138   2.78548
 Alpha virt. eigenvalues --    2.97687   3.13236   3.27207   3.32708   3.42434
 Alpha virt. eigenvalues --    4.36340   4.41518   4.58218   4.66926   4.82520
          Condensed to atoms (all electrons):
               1          2          3          4          5          6
     1  O    8.617782  -0.169830   0.529879  -0.393215   0.079415  -0.002798
     2  O   -0.169830   8.597635   0.462759  -0.323770   0.096302   0.001263
     3  C    0.529879   0.462759   4.837332  -0.363026   0.050648  -0.015252
     4  C   -0.393215  -0.323770  -0.363026   7.536487  -0.640754   0.388433
     5  C    0.079415   0.096302   0.050648  -0.640754   6.024724  -0.055728
     6  H   -0.002798   0.001263  -0.015252   0.388433  -0.055728   0.530551
     7  H   -0.002845   0.001364  -0.015252   0.388699  -0.056005  -0.032680
     8  H   -0.000114  -0.006648  -0.002657  -0.048302   0.411093  -0.004343
     9  H   -0.000310   0.002882   0.012443  -0.060278   0.378479  -0.002034
    10  H   -0.000099  -0.006620  -0.003026  -0.047952   0.411005   0.003862
               7          8          9         10
     1  O   -0.002845  -0.000114  -0.000310  -0.000099
     2  O    0.001364  -0.006648   0.002882  -0.006620
     3  C   -0.015252  -0.002657   0.012443  -0.003026
     4  C    0.388699  -0.048302  -0.060278  -0.047952
     5  C   -0.056005   0.411093   0.378479   0.411005
     6  H   -0.032680  -0.004343  -0.002034   0.003862
     7  H    0.530406   0.003862  -0.002040  -0.004333
     8  H    0.003862   0.498655  -0.033924  -0.025545
     9  H   -0.002040  -0.033924   0.589169  -0.033960
    10  H   -0.004333  -0.025545  -0.033960   0.499166
 Mulliken charges:
               1
     1  C    0.000000
     2  C    0.000000
     3  C    0.000000
     4  N    0.000000
     5  C    0.000000
     6  O    0.000000
     7  N    0.000000
     8  C    0.000000
     9  C    0.000000
    10  C    0.000000
    11  C    0.000000
    12  C    0.000000
    13  C    0.000000
    14  H    0.000000
    15  H    0.000000
    16  H    0.000000
    17  H    0.000000
    18  H    0.000000
    19  H    0.000000
    20  H    0.000000
    21  H    0.000000
    22  H    0.000000
    23  H    0.000000
    24  H    0.000000
    25  H    0.000000
    26  C    0.000000
    27  C    0.000000
    28  F    0.000000
    29  F    0.000000
    30  F    0.000000
    31  F    0.000000
    32  F    0.000000
    33  F    0.000000
    34  O   -0.657865
    35  O   -0.655336
    36  C    0.506153
    37  C   -0.436322
    38  C   -0.699180
    39  H    0.188727
    40  H    0.188823
    41  H    0.207924
    42  H    0.149575
    43  H    0.207501
 Sum of Mulliken charges =  -1.00000
 Mulliken charges with hydrogens summed into heavy atoms:
               1
     1  C    0.000000
     2  C    0.000000
     3  C    0.000000
     4  N    0.000000
     5  C    0.000000
     6  O    0.000000
     7  N    0.000000
     8  C    0.000000
     9  C    0.000000
    10  C    0.000000
    11  C    0.000000
    12  C    0.000000
    13  C    0.000000
    26  C    0.000000
    27  C    0.000000
    28  F    0.000000
    29  F    0.000000
    30  F    0.000000
    31  F    0.000000
    32  F    0.000000
    33  F    0.000000
    34  O   -0.657865
    35  O   -0.655336
    36  C    0.506153
    37  C   -0.058772
    38  C   -0.134180
         Mulliken charges condensed to fragments:
      1      0.000000
      2     -1.000000
 Electronic spatial extent (au):  <R**2>=           3688.5096
 Charge=             -1.0000 electrons
 Dipole moment (field-independent basis, Debye):
    X=             16.8287    Y=             -8.0563    Z=              0.0699  Tot=             18.6578
 Quadrupole moment (field-independent basis, Debye-Ang):
   XX=           -100.2611   YY=            -54.0347   ZZ=            -32.3607
   XY=             25.0890   XZ=             -0.4384   YZ=              0.0386
 Traceless Quadrupole moment (field-independent basis, Debye-Ang):
   XX=            -38.0423   YY=              8.1841   ZZ=             29.8581
   XY=             25.0890   XZ=             -0.4384   YZ=              0.0386
 Octapole moment (field-independent basis, Debye-Ang**2):
  XXX=            678.8586  YYY=           -370.5988  ZZZ=              1.8445  XYY=            193.1379
  XXY=           -187.9520  XXZ=              3.0312  XZZ=            124.7248  YZZ=            -93.9413
  YYZ=              0.7015  XYZ=             -0.4462
 Hexadecapole moment (field-independent basis, Debye-Ang**3):
 XXXX=          -4508.9624 YYYY=          -2480.2743 ZZZZ=            -50.1780 XXXY=           1499.5578
 XXXZ=            -20.9176 YYYX=           1389.3073 YYYZ=              5.9267 ZZZX=             -8.2867
 ZZZY=              5.0610 XXYY=          -1102.2927 XXZZ=           -516.8150 YYZZ=           -349.2804
 XXYZ=              4.6588 YYXZ=             -3.7234 ZZXY=            361.1589
 N-N= 1.685442407469D+02 E-N=-9.724313119852D+02  KE= 2.654888506843D+02
 CPIOFr:  IOpCl= 0 IRwI=-1 IRwCP=  731 ICalc=  4 LCPTot=      433210 Len1MO=     1123762 IndFrg=     6052020
 CPIOFr:  IOpCl= 0 IRwI=-2 IRwCP=  731 ICalc=  0 LCPTot=      433210 Len1MO=     1123762 IndFrg=     1556972
 Counterpoise corrected energy =   -1515.727051905760
                   BSSE energy =       0.001730124016
               sum of monomers =   -1515.642353316444
           complexation energy =     -54.23 kcal/mole (raw)
           complexation energy =     -53.15 kcal/mole (corrected)
 1\1\GINC-R4186\SP\RM062X\Gen\C15H17F6N2O3(1-)\ROOT\21-Feb-2019\0\\# M0
 62X/Gen 6D SCF=Tight INT(grid=ultrafine) Counterpoise=2 maxdisk=671088
 640\\34TFM_EtO.M062X_6-31pGd_bsse\\-1,1\C,0,-2.115626308,2.2467108197,
 -0.1609901682\C,0,-0.7436330215,1.5776695724,-0.1295830364\C,0,0.38230
 40452,2.6052292183,-0.1027365064\N,0,1.6601082849,1.9306952932,-0.0658
 873766\C,0,2.806637287,2.6446484885,-0.103668245\O,0,2.8408385502,3.87
 46441065,-0.1825970944\N,0,3.9415455951,1.839063313,-0.0460292419\C,0,
 5.2527542123,2.2428020351,-0.0662482607\C,0,5.6797645228,3.5844988077,
 -0.1608160077\C,0,6.2338751253,1.2344830476,0.0100724768\C,0,7.5781588
 724,1.5599288149,-0.0014495194\C,0,8.0119139475,2.885867081,-0.0880511
 722\C,0,7.0345116116,3.8926318579,-0.1755739257\H,0,-2.9206919767,1.50
 49481871,-0.1826638823\H,0,-2.2231044295,2.8845986926,-1.046376838\H,0
 ,-2.2660706751,2.878890741,0.7221787954\H,0,-0.6138615214,0.928227405,
 -1.0034375384\H,0,-0.6551139245,0.9235998987,0.7458311711\H,0,0.274315
 7221,3.2646094495,0.7715013695\H,0,0.3297691154,3.2544043553,-0.987985
 396\H,0,1.674140393,0.897025393,0.0222998882\H,0,3.7990823886,0.807204
 2907,0.0236031047\H,0,4.9351358259,4.3654939954,-0.226505096\H,0,5.910
 060611,0.1988433226,0.0806685707\H,0,8.314046581,0.7656692001,0.063268
 8937\C,0,7.3960419363,5.3573770745,-0.2504751016\C,0,9.4900790457,3.14
 34151854,-0.1228156627\F,0,9.8675380083,4.19143097,0.6332191797\F,0,9.
 9605627264,3.3796637994,-1.3676385357\F,0,10.1892516474,2.0804605854,0
 .3334581496\F,0,6.3715812499,6.1133585499,-0.679352456\F,0,8.420088565
 ,5.5934900997,-1.0930992724\F,0,7.7559725182,5.8576043348,0.9494268139
 \O,0,1.5731967979,-0.8670617728,0.1731589743\O,0,3.8179566527,-0.91394
 94671,0.1484023631\C,0,2.6815513917,-1.4588018057,0.2061050507\C,0,2.6
 314824686,-2.990153343,0.3277187498\C,0,3.9966339135,-3.6653472632,0.3
 72314899\H,0,2.0360948056,-3.359155989,-0.5166284924\H,0,2.0468318187,
 -3.2214422842,1.2266727333\H,0,4.5697144439,-3.4374301211,-0.531059324
 7\H,0,3.8981860378,-4.7543864825,0.4590838941\H,0,4.5809551377,-3.2990
 794569,1.2214130733\\Version=ES64L-G09RevE.01\State=1-A\HF=-267.728465
 2\RMSD=4.029e-09\Dipole=0.8442586,0.3021579,-0.0384135\Quadrupole=-15.
 2661765,-7.5841433,22.8503198,-18.4516722,1.3745749,1.9879571\PG=C01 [
 X(C15H17F6N2O3)]\\@


 YOU CAN LEAD A BOY TO COLLEGE....
 BUT YOU CANNOT MAKE HIM THINK....
           ELBERT HUBBARD
 Job cpu time:       0 days  2 hours 49 minutes 45.0 seconds.
 File lengths (MBytes):  RWF=    228 Int=      0 D2E=      0 Chk=     63 Scr=      1
 Normal termination of Gaussian 09 at Thu Feb 21 16:15:16 2019.
WARNING: pbs_rusage is deprecated and values produced may not be accurate


=============================================================================
                                     Resource usage:
                                       CPU time:              02:47:26
   JobId:    5975178.r-man2            Elapsed time:          00:42:19
   Project:             q95            Requested time:        48:00:00
   Service Units:      2.82 
                                       Max physical memory:      167MB
                                       Max virtual memory:       465MB
                                       Requested memory:           0MB

                                       Number of cpus:               4

                                       Max jobfs disk use:       0.2GB
                                       Requested jobfs:          5.0GB
=============================================================================

