F
 AtFile(1): /home/507/hio507/Basis/6-31pGd.gbs
 Initial command:
 /apps/gaussian/g09e01/g09/l1.exe "/jobfs/local/5874137.r-man2/Gau-46509.inp" -scrdir="/jobfs/local/5874137.r-man2/"
 Entering Link 1 = /apps/gaussian/g09e01/g09/l1.exe PID=     46510.
  
 Copyright (c) 1988,1990,1992,1993,1995,1998,2003,2009,2015,
            Gaussian, Inc.  All Rights Reserved.
  
 This is part of the Gaussian(R) 09 program.  It is based on
 the Gaussian(R) 03 system (copyright 2003, Gaussian, Inc.),
 the Gaussian(R) 98 system (copyright 1998, Gaussian, Inc.),
 the Gaussian(R) 94 system (copyright 1995, Gaussian, Inc.),
 the Gaussian 92(TM) system (copyright 1992, Gaussian, Inc.),
 the Gaussian 90(TM) system (copyright 1990, Gaussian, Inc.),
 the Gaussian 88(TM) system (copyright 1988, Gaussian, Inc.),
 the Gaussian 86(TM) system (copyright 1986, Carnegie Mellon
 University), and the Gaussian 82(TM) system (copyright 1983,
 Carnegie Mellon University). Gaussian is a federally registered
 trademark of Gaussian, Inc.
  
 This software contains proprietary and confidential information,
 including trade secrets, belonging to Gaussian, Inc.
  
 This software is provided under written license and may be
 used, copied, transmitted, or stored only in accord with that
 written license.
  
 The following legend is applicable only to US Government
 contracts under FAR:
  
                    RESTRICTED RIGHTS LEGEND
  
 Use, reproduction and disclosure by the US Government is
 subject to restrictions as set forth in subparagraphs (a)
 and (c) of the Commercial Computer Software - Restricted
 Rights clause in FAR 52.227-19.
  
 Gaussian, Inc.
 340 Quinnipiac St., Bldg. 40, Wallingford CT 06492
  
  
 ---------------------------------------------------------------
 Warning -- This program may not be used in any manner that
 competes with the business of Gaussian, Inc. or will provide
 assistance to any competitor of Gaussian, Inc.  The licensee
 of this program is prohibited from giving any competitor of
 Gaussian, Inc. access to this program.  By using this program,
 the user acknowledges that Gaussian, Inc. is engaged in the
 business of creating and licensing software in the field of
 computational chemistry and represents and warrants to the
 licensee that it is not a competitor of Gaussian, Inc. and that
 it will not use this program in any manner prohibited above.
 ---------------------------------------------------------------
  

 Cite this work as:
 Gaussian 09, Revision E.01,
 M. J. Frisch, G. W. Trucks, H. B. Schlegel, G. E. Scuseria, 
 M. A. Robb, J. R. Cheeseman, G. Scalmani, V. Barone, B. Mennucci, 
 G. A. Petersson, H. Nakatsuji, M. Caricato, X. Li, H. P. Hratchian, 
 A. F. Izmaylov, J. Bloino, G. Zheng, J. L. Sonnenberg, M. Hada, 
 M. Ehara, K. Toyota, R. Fukuda, J. Hasegawa, M. Ishida, T. Nakajima, 
 Y. Honda, O. Kitao, H. Nakai, T. Vreven, J. A. Montgomery, Jr., 
 J. E. Peralta, F. Ogliaro, M. Bearpark, J. J. Heyd, E. Brothers, 
 K. N. Kudin, V. N. Staroverov, T. Keith, R. Kobayashi, J. Normand, 
 K. Raghavachari, A. Rendell, J. C. Burant, S. S. Iyengar, J. Tomasi, 
 M. Cossi, N. Rega, J. M. Millam, M. Klene, J. E. Knox, J. B. Cross, 
 V. Bakken, C. Adamo, J. Jaramillo, R. Gomperts, R. E. Stratmann, 
 O. Yazyev, A. J. Austin, R. Cammi, C. Pomelli, J. W. Ochterski, 
 R. L. Martin, K. Morokuma, V. G. Zakrzewski, G. A. Voth, 
 P. Salvador, J. J. Dannenberg, S. Dapprich, A. D. Daniels, 
 O. Farkas, J. B. Foresman, J. V. Ortiz, J. Cioslowski, 
 and D. J. Fox, Gaussian, Inc., Wallingford CT, 2013.
 
 ******************************************
 Gaussian 09:  ES64L-G09RevE.01 30-Nov-2015
                19-Feb-2019 
 ******************************************
 %chk=34TFM_EtO.M062X_6-31pGd_opt.chk
 %mem=196608000
 %nproc=8
 Will use up to    8 processors via shared memory.
 ----------------------------------------------------------------------
 # M062X/Gen 6D SCF=Tight INT(grid=ultrafine) OPT IOP(2/17=4) maxdisk=3
 221225472
 ----------------------------------------------------------------------
 1/14=-1,18=20,19=15,26=4,38=1/1,3;
 2/9=110,12=2,17=4,18=5,40=1/2;
 3/5=7,8=2,11=2,16=1,25=1,30=1,71=1,74=-55,75=-5/1,2,3;
 4//1;
 5/5=2,32=2,38=5/2;
 6/7=2,8=2,9=2,10=2,28=1/1;
 7//1,2,3,16;
 1/14=-1,18=20,19=15,26=4/3(2);
 2/9=110,17=4/2;
 99//99;
 2/9=110,17=4/2;
 3/5=7,6=1,8=2,11=2,16=1,25=1,30=1,71=1,74=-55,75=-5,82=7/1,2,3;
 4/5=5,16=3,69=1/1;
 5/5=2,32=2,38=5/2;
 7//1,2,3,16;
 1/14=-1,18=20,19=15,26=4/3(-5);
 2/9=110,17=4/2;
 6/7=2,8=2,9=2,10=2,19=2,28=1/1;
 99/9=1/99;
 ---------------------------
 34TFM_EtO.M062X_6-31pGd_opt
 ---------------------------
 Symbolic Z-matrix:
 Charge = -1 Multiplicity = 1
 C                    -2.1131    2.45806  -0.31643 
 C                    -0.79881   1.69739  -0.16728 
 C                     0.40247   2.64631  -0.23662 
 N                     1.65407   1.92028  -0.09404 
 C                     2.85831   2.56218  -0.12577 
 O                     2.87725   3.77246  -0.2791 
 N                     4.01913   1.84176   0.01098 
 C                     5.37672   2.33872   0.00325 
 C                     5.73463   3.70208  -0.12192 
 C                     6.41575   1.40691   0.13015 
 C                     7.74822   1.80136   0.13231 
 C                     8.11651   3.14931   0.00856 
 C                     7.08531   4.12921  -0.12198 
 H                    -2.96337   1.74597  -0.26253 
 H                    -2.14807   2.9803   -1.29629 
 H                    -2.22197   3.20437   0.49921 
 H                    -0.72432   0.94463  -0.98212 
 H                    -0.79839   1.16898   0.81092 
 H                     0.32078   3.39805   0.57935 
 H                     0.39462   3.17288  -1.21654 
 H                     1.62056   0.78876   0.04699 
 H                     3.89524   0.70983   0.14535 
 H                     4.9854    4.45835  -0.21893 
 H                     6.20591   0.35149   0.22886 
 H                     8.50855   1.03523   0.23304 
 C                     7.37749   5.61677  -0.26087 
 C                     9.61598   3.4182    0.02894 
 F                     9.96856   4.74432  -0.09271 
 F                     10.21116   2.72939  -1.0131 
 F                     10.14066   2.95318   1.22185 
 F                     6.22448   6.37559  -0.37287 
 F                     8.12984   5.84274  -1.39953 
 F                     8.05858   6.06722   0.85576 
 O                     1.60466  -1.25567   0.38955 
 O                     3.82986  -1.33842   0.49019 
 C                     2.7611   -1.93197   0.54831 
 C                     2.73373  -3.41018   0.80291 
 C                     3.46454  -4.17118  -0.29885 
 H                     1.68006  -3.76144   0.84419 
 H                     3.21493  -3.62121   1.78186 
 H                     2.98277  -3.98123  -1.28187 
 H                     3.42527  -5.26048  -0.08713 
 H                     4.52951  -3.85812  -0.34732 
 
 Add virtual bond connecting atoms O34        and H21        Dist= 3.92D+00.
 Add virtual bond connecting atoms O35        and H22        Dist= 3.93D+00.

 GradGradGradGradGradGradGradGradGradGradGradGradGradGradGradGradGradGrad
 Berny optimization.
 Initialization pass.
                           ----------------------------
                           !    Initial Parameters    !
                           ! (Angstroms and Degrees)  !
 --------------------------                            --------------------------
 ! Name  Definition              Value          Derivative Info.                !
 --------------------------------------------------------------------------------
 ! R1    R(1,2)                  1.5259         estimate D2E/DX2                !
 ! R2    R(1,14)                 1.1104         estimate D2E/DX2                !
 ! R3    R(1,15)                 1.1109         estimate D2E/DX2                !
 ! R4    R(1,16)                 1.1109         estimate D2E/DX2                !
 ! R5    R(2,3)                  1.5324         estimate D2E/DX2                !
 ! R6    R(2,17)                 1.1118         estimate D2E/DX2                !
 ! R7    R(2,18)                 1.1118         estimate D2E/DX2                !
 ! R8    R(3,4)                  1.4539         estimate D2E/DX2                !
 ! R9    R(3,19)                 1.1125         estimate D2E/DX2                !
 ! R10   R(3,20)                 1.1125         estimate D2E/DX2                !
 ! R11   R(4,5)                  1.365          estimate D2E/DX2                !
 ! R12   R(4,21)                 1.1408         estimate D2E/DX2                !
 ! R13   R(5,6)                  1.2201         estimate D2E/DX2                !
 ! R14   R(5,7)                  1.373          estimate D2E/DX2                !
 ! R15   R(7,8)                  1.4457         estimate D2E/DX2                !
 ! R16   R(7,22)                 1.1466         estimate D2E/DX2                !
 ! R17   R(8,9)                  1.4151         estimate D2E/DX2                !
 ! R18   R(8,10)                 1.4014         estimate D2E/DX2                !
 ! R19   R(9,13)                 1.4166         estimate D2E/DX2                !
 ! R20   R(9,23)                 1.069          estimate D2E/DX2                !
 ! R21   R(10,11)                1.3896         estimate D2E/DX2                !
 ! R22   R(10,24)                1.0806         estimate D2E/DX2                !
 ! R23   R(11,12)                1.4028         estimate D2E/DX2                !
 ! R24   R(11,25)                1.0841         estimate D2E/DX2                !
 ! R25   R(12,13)                1.4285         estimate D2E/DX2                !
 ! R26   R(12,27)                1.5235         estimate D2E/DX2                !
 ! R27   R(13,26)                1.5223         estimate D2E/DX2                !
 ! R28   R(21,34)                2.073          estimate D2E/DX2                !
 ! R29   R(22,35)                2.0781         estimate D2E/DX2                !
 ! R30   R(26,31)                1.3848         estimate D2E/DX2                !
 ! R31   R(26,32)                1.3833         estimate D2E/DX2                !
 ! R32   R(26,33)                1.3833         estimate D2E/DX2                !
 ! R33   R(27,28)                1.3776         estimate D2E/DX2                !
 ! R34   R(27,29)                1.3837         estimate D2E/DX2                !
 ! R35   R(27,30)                1.3837         estimate D2E/DX2                !
 ! R36   R(34,36)                1.3491         estimate D2E/DX2                !
 ! R37   R(35,36)                1.2239         estimate D2E/DX2                !
 ! R38   R(36,37)                1.5002         estimate D2E/DX2                !
 ! R39   R(37,38)                1.5255         estimate D2E/DX2                !
 ! R40   R(37,39)                1.1114         estimate D2E/DX2                !
 ! R41   R(37,40)                1.111          estimate D2E/DX2                !
 ! R42   R(38,41)                1.1111         estimate D2E/DX2                !
 ! R43   R(38,42)                1.1104         estimate D2E/DX2                !
 ! R44   R(38,43)                1.1111         estimate D2E/DX2                !
 ! A1    A(2,1,14)             109.5803         estimate D2E/DX2                !
 ! A2    A(2,1,15)             110.3463         estimate D2E/DX2                !
 ! A3    A(2,1,16)             110.3378         estimate D2E/DX2                !
 ! A4    A(14,1,15)            108.6747         estimate D2E/DX2                !
 ! A5    A(14,1,16)            108.6719         estimate D2E/DX2                !
 ! A6    A(15,1,16)            109.1902         estimate D2E/DX2                !
 ! A7    A(1,2,3)              111.229          estimate D2E/DX2                !
 ! A8    A(1,2,17)             108.8803         estimate D2E/DX2                !
 ! A9    A(1,2,18)             108.8604         estimate D2E/DX2                !
 ! A10   A(3,2,17)             109.4853         estimate D2E/DX2                !
 ! A11   A(3,2,18)             109.5007         estimate D2E/DX2                !
 ! A12   A(17,2,18)            108.845          estimate D2E/DX2                !
 ! A13   A(2,3,4)              111.1716         estimate D2E/DX2                !
 ! A14   A(2,3,19)             109.1283         estimate D2E/DX2                !
 ! A15   A(2,3,20)             109.1127         estimate D2E/DX2                !
 ! A16   A(4,3,19)             109.1908         estimate D2E/DX2                !
 ! A17   A(4,3,20)             109.1969         estimate D2E/DX2                !
 ! A18   A(19,3,20)            109.0089         estimate D2E/DX2                !
 ! A19   A(3,4,5)              121.4896         estimate D2E/DX2                !
 ! A20   A(3,4,21)             118.8253         estimate D2E/DX2                !
 ! A21   A(5,4,21)             119.6851         estimate D2E/DX2                !
 ! A22   A(4,5,6)              118.8871         estimate D2E/DX2                !
 ! A23   A(4,5,7)              119.7896         estimate D2E/DX2                !
 ! A24   A(6,5,7)              121.323          estimate D2E/DX2                !
 ! A25   A(5,7,8)              127.808          estimate D2E/DX2                !
 ! A26   A(5,7,22)             115.9959         estimate D2E/DX2                !
 ! A27   A(8,7,22)             116.1961         estimate D2E/DX2                !
 ! A28   A(7,8,9)              124.6914         estimate D2E/DX2                !
 ! A29   A(7,8,10)             117.8514         estimate D2E/DX2                !
 ! A30   A(9,8,10)             117.4571         estimate D2E/DX2                !
 ! A31   A(8,9,13)             122.1167         estimate D2E/DX2                !
 ! A32   A(8,9,23)             120.8213         estimate D2E/DX2                !
 ! A33   A(13,9,23)            117.0618         estimate D2E/DX2                !
 ! A34   A(8,10,11)            121.4883         estimate D2E/DX2                !
 ! A35   A(8,10,24)            120.9115         estimate D2E/DX2                !
 ! A36   A(11,10,24)           117.6002         estimate D2E/DX2                !
 ! A37   A(10,11,12)           121.6243         estimate D2E/DX2                !
 ! A38   A(10,11,25)           118.168          estimate D2E/DX2                !
 ! A39   A(12,11,25)           120.2077         estimate D2E/DX2                !
 ! A40   A(11,12,13)           118.5336         estimate D2E/DX2                !
 ! A41   A(11,12,27)           115.2645         estimate D2E/DX2                !
 ! A42   A(13,12,27)           126.2019         estimate D2E/DX2                !
 ! A43   A(9,13,12)            118.7799         estimate D2E/DX2                !
 ! A44   A(9,13,26)            118.5307         estimate D2E/DX2                !
 ! A45   A(12,13,26)           122.6893         estimate D2E/DX2                !
 ! A46   A(13,26,31)           112.5203         estimate D2E/DX2                !
 ! A47   A(13,26,32)           109.8221         estimate D2E/DX2                !
 ! A48   A(13,26,33)           109.8182         estimate D2E/DX2                !
 ! A49   A(31,26,32)           107.2619         estimate D2E/DX2                !
 ! A50   A(31,26,33)           107.2646         estimate D2E/DX2                !
 ! A51   A(32,26,33)           110.0877         estimate D2E/DX2                !
 ! A52   A(12,27,28)           114.8738         estimate D2E/DX2                !
 ! A53   A(12,27,29)           108.991          estimate D2E/DX2                !
 ! A54   A(12,27,30)           108.9912         estimate D2E/DX2                !
 ! A55   A(28,27,29)           107.6152         estimate D2E/DX2                !
 ! A56   A(28,27,30)           107.6141         estimate D2E/DX2                !
 ! A57   A(29,27,30)           108.5938         estimate D2E/DX2                !
 ! A58   A(21,34,36)           120.4828         estimate D2E/DX2                !
 ! A59   A(22,35,36)           120.8874         estimate D2E/DX2                !
 ! A60   A(34,36,35)           119.9904         estimate D2E/DX2                !
 ! A61   A(34,36,37)           119.887          estimate D2E/DX2                !
 ! A62   A(35,36,37)           120.1218         estimate D2E/DX2                !
 ! A63   A(36,37,38)           111.1143         estimate D2E/DX2                !
 ! A64   A(36,37,39)           109.5726         estimate D2E/DX2                !
 ! A65   A(36,37,40)           109.1947         estimate D2E/DX2                !
 ! A66   A(38,37,39)           108.8646         estimate D2E/DX2                !
 ! A67   A(38,37,40)           109.5196         estimate D2E/DX2                !
 ! A68   A(39,37,40)           108.5322         estimate D2E/DX2                !
 ! A69   A(37,38,41)           110.2418         estimate D2E/DX2                !
 ! A70   A(37,38,42)           109.5564         estimate D2E/DX2                !
 ! A71   A(37,38,43)           110.4955         estimate D2E/DX2                !
 ! A72   A(41,38,42)           108.7279         estimate D2E/DX2                !
 ! A73   A(41,38,43)           109.1984         estimate D2E/DX2                !
 ! A74   A(42,38,43)           108.5799         estimate D2E/DX2                !
 ! A75   L(4,21,34,2,-1)       181.3228         estimate D2E/DX2                !
 ! A76   L(7,22,35,1,-1)       184.4922         estimate D2E/DX2                !
 ! A77   L(4,21,34,2,-2)       182.5155         estimate D2E/DX2                !
 ! A78   L(7,22,35,1,-2)       182.6937         estimate D2E/DX2                !
 ! D1    D(14,1,2,3)           179.9871         estimate D2E/DX2                !
 ! D2    D(14,1,2,17)           59.2536         estimate D2E/DX2                !
 ! D3    D(14,1,2,18)          -59.2733         estimate D2E/DX2                !
 ! D4    D(15,1,2,3)            60.3593         estimate D2E/DX2                !
 ! D5    D(15,1,2,17)          -60.3742         estimate D2E/DX2                !
 ! D6    D(15,1,2,18)         -178.9011         estimate D2E/DX2                !
 ! D7    D(16,1,2,3)           -60.3938         estimate D2E/DX2                !
 ! D8    D(16,1,2,17)          178.8727         estimate D2E/DX2                !
 ! D9    D(16,1,2,18)           60.3459         estimate D2E/DX2                !
 ! D10   D(1,2,3,4)            179.9858         estimate D2E/DX2                !
 ! D11   D(1,2,3,19)            59.4924         estimate D2E/DX2                !
 ! D12   D(1,2,3,20)           -59.5233         estimate D2E/DX2                !
 ! D13   D(17,2,3,4)           -59.6372         estimate D2E/DX2                !
 ! D14   D(17,2,3,19)          179.8694         estimate D2E/DX2                !
 ! D15   D(17,2,3,20)           60.8536         estimate D2E/DX2                !
 ! D16   D(18,2,3,4)            59.6235         estimate D2E/DX2                !
 ! D17   D(18,2,3,19)          -60.8699         estimate D2E/DX2                !
 ! D18   D(18,2,3,20)         -179.8856         estimate D2E/DX2                !
 ! D19   D(2,3,4,5)            179.9523         estimate D2E/DX2                !
 ! D20   D(2,3,4,21)            -0.037          estimate D2E/DX2                !
 ! D21   D(19,3,4,5)           -59.5912         estimate D2E/DX2                !
 ! D22   D(19,3,4,21)          120.4195         estimate D2E/DX2                !
 ! D23   D(20,3,4,5)            59.5112         estimate D2E/DX2                !
 ! D24   D(20,3,4,21)         -120.4781         estimate D2E/DX2                !
 ! D25   D(3,4,5,6)             -0.0847         estimate D2E/DX2                !
 ! D26   D(3,4,5,7)           -179.9324         estimate D2E/DX2                !
 ! D27   D(21,4,5,6)           179.9046         estimate D2E/DX2                !
 ! D28   D(21,4,5,7)             0.0568         estimate D2E/DX2                !
 ! D29   D(3,4,34,36)         -178.7308         estimate D2E/DX2                !
 ! D30   D(5,4,34,36)           -0.4221         estimate D2E/DX2                !
 ! D31   D(4,5,7,8)            179.9859         estimate D2E/DX2                !
 ! D32   D(4,5,7,22)             0.1148         estimate D2E/DX2                !
 ! D33   D(6,5,7,8)              0.1419         estimate D2E/DX2                !
 ! D34   D(6,5,7,22)          -179.7292         estimate D2E/DX2                !
 ! D35   D(5,7,8,9)              1.5194         estimate D2E/DX2                !
 ! D36   D(5,7,8,10)          -178.5593         estimate D2E/DX2                !
 ! D37   D(22,7,8,9)          -178.6098         estimate D2E/DX2                !
 ! D38   D(22,7,8,10)            1.3116         estimate D2E/DX2                !
 ! D39   D(5,7,35,36)            0.3903         estimate D2E/DX2                !
 ! D40   D(8,7,35,36)          178.8528         estimate D2E/DX2                !
 ! D41   D(7,8,9,13)           179.957          estimate D2E/DX2                !
 ! D42   D(7,8,9,23)             0.105          estimate D2E/DX2                !
 ! D43   D(10,8,9,13)            0.0353         estimate D2E/DX2                !
 ! D44   D(10,8,9,23)         -179.8167         estimate D2E/DX2                !
 ! D45   D(7,8,10,11)         -179.9855         estimate D2E/DX2                !
 ! D46   D(7,8,10,24)            0.0946         estimate D2E/DX2                !
 ! D47   D(9,8,10,11)           -0.0583         estimate D2E/DX2                !
 ! D48   D(9,8,10,24)         -179.9783         estimate D2E/DX2                !
 ! D49   D(8,9,13,12)            0.0071         estimate D2E/DX2                !
 ! D50   D(8,9,13,26)         -179.9663         estimate D2E/DX2                !
 ! D51   D(23,9,13,12)         179.8644         estimate D2E/DX2                !
 ! D52   D(23,9,13,26)          -0.1091         estimate D2E/DX2                !
 ! D53   D(8,10,11,12)           0.0392         estimate D2E/DX2                !
 ! D54   D(8,10,11,25)        -179.9616         estimate D2E/DX2                !
 ! D55   D(24,10,11,12)        179.9617         estimate D2E/DX2                !
 ! D56   D(24,10,11,25)         -0.0391         estimate D2E/DX2                !
 ! D57   D(10,11,12,13)          0.0054         estimate D2E/DX2                !
 ! D58   D(10,11,12,27)        179.9841         estimate D2E/DX2                !
 ! D59   D(25,11,12,13)       -179.9938         estimate D2E/DX2                !
 ! D60   D(25,11,12,27)         -0.0152         estimate D2E/DX2                !
 ! D61   D(11,12,13,9)          -0.0277         estimate D2E/DX2                !
 ! D62   D(11,12,13,26)        179.9446         estimate D2E/DX2                !
 ! D63   D(27,12,13,9)         179.9963         estimate D2E/DX2                !
 ! D64   D(27,12,13,26)         -0.0315         estimate D2E/DX2                !
 ! D65   D(11,12,27,28)       -179.9816         estimate D2E/DX2                !
 ! D66   D(11,12,27,29)         59.1995         estimate D2E/DX2                !
 ! D67   D(11,12,27,30)        -59.1641         estimate D2E/DX2                !
 ! D68   D(13,12,27,28)         -0.0049         estimate D2E/DX2                !
 ! D69   D(13,12,27,29)       -120.8237         estimate D2E/DX2                !
 ! D70   D(13,12,27,30)        120.8127         estimate D2E/DX2                !
 ! D71   D(9,13,26,31)          -0.0099         estimate D2E/DX2                !
 ! D72   D(9,13,26,32)        -119.4112         estimate D2E/DX2                !
 ! D73   D(9,13,26,33)         119.3923         estimate D2E/DX2                !
 ! D74   D(12,13,26,31)       -179.9822         estimate D2E/DX2                !
 ! D75   D(12,13,26,32)         60.6165         estimate D2E/DX2                !
 ! D76   D(12,13,26,33)        -60.58           estimate D2E/DX2                !
 ! D77   D(21,34,36,35)         -0.0155         estimate D2E/DX2                !
 ! D78   D(21,34,36,37)        179.6729         estimate D2E/DX2                !
 ! D79   D(22,35,36,34)         -0.0974         estimate D2E/DX2                !
 ! D80   D(22,35,36,37)       -179.785          estimate D2E/DX2                !
 ! D81   D(34,36,37,38)        119.3365         estimate D2E/DX2                !
 ! D82   D(34,36,37,39)         -1.005          estimate D2E/DX2                !
 ! D83   D(34,36,37,40)       -119.7534         estimate D2E/DX2                !
 ! D84   D(35,36,37,38)        -60.9756         estimate D2E/DX2                !
 ! D85   D(35,36,37,39)        178.6829         estimate D2E/DX2                !
 ! D86   D(35,36,37,40)         59.9346         estimate D2E/DX2                !
 ! D87   D(36,37,38,41)        -60.1741         estimate D2E/DX2                !
 ! D88   D(36,37,38,42)       -179.7879         estimate D2E/DX2                !
 ! D89   D(36,37,38,43)         60.6237         estimate D2E/DX2                !
 ! D90   D(39,37,38,41)         60.5855         estimate D2E/DX2                !
 ! D91   D(39,37,38,42)        -59.0283         estimate D2E/DX2                !
 ! D92   D(39,37,38,43)       -178.6167         estimate D2E/DX2                !
 ! D93   D(40,37,38,41)        179.1071         estimate D2E/DX2                !
 ! D94   D(40,37,38,42)         59.4933         estimate D2E/DX2                !
 ! D95   D(40,37,38,43)        -60.0951         estimate D2E/DX2                !
 --------------------------------------------------------------------------------
 Trust Radius=3.00D-01 FncErr=1.00D-07 GrdErr=1.00D-06
 Number of steps in this run=    227 maximum allowed number of steps=    258.
 GradGradGradGradGradGradGradGradGradGradGradGradGradGradGradGradGradGrad

                          Input orientation:                          
 ---------------------------------------------------------------------
 Center     Atomic      Atomic             Coordinates (Angstroms)
 Number     Number       Type             X           Y           Z
 ---------------------------------------------------------------------
      1          6           0       -2.113100    2.458060   -0.316430
      2          6           0       -0.798810    1.697390   -0.167280
      3          6           0        0.402470    2.646310   -0.236620
      4          7           0        1.654070    1.920280   -0.094040
      5          6           0        2.858310    2.562180   -0.125770
      6          8           0        2.877250    3.772460   -0.279100
      7          7           0        4.019130    1.841760    0.010980
      8          6           0        5.376720    2.338720    0.003250
      9          6           0        5.734630    3.702080   -0.121920
     10          6           0        6.415750    1.406910    0.130150
     11          6           0        7.748220    1.801360    0.132310
     12          6           0        8.116510    3.149310    0.008560
     13          6           0        7.085310    4.129210   -0.121980
     14          1           0       -2.963370    1.745970   -0.262530
     15          1           0       -2.148070    2.980300   -1.296290
     16          1           0       -2.221970    3.204370    0.499210
     17          1           0       -0.724320    0.944630   -0.982120
     18          1           0       -0.798390    1.168980    0.810920
     19          1           0        0.320780    3.398050    0.579350
     20          1           0        0.394620    3.172880   -1.216540
     21          1           0        1.620560    0.788760    0.046990
     22          1           0        3.895240    0.709830    0.145350
     23          1           0        4.985400    4.458350   -0.218930
     24          1           0        6.205910    0.351490    0.228860
     25          1           0        8.508550    1.035230    0.233040
     26          6           0        7.377490    5.616770   -0.260870
     27          6           0        9.615980    3.418200    0.028940
     28          9           0        9.968560    4.744320   -0.092710
     29          9           0       10.211160    2.729390   -1.013100
     30          9           0       10.140660    2.953180    1.221850
     31          9           0        6.224480    6.375590   -0.372870
     32          9           0        8.129840    5.842740   -1.399530
     33          9           0        8.058580    6.067220    0.855760
     34          8           0        1.604660   -1.255670    0.389550
     35          8           0        3.829860   -1.338420    0.490190
     36          6           0        2.761100   -1.931970    0.548310
     37          6           0        2.733730   -3.410180    0.802910
     38          6           0        3.464540   -4.171180   -0.298850
     39          1           0        1.680060   -3.761440    0.844190
     40          1           0        3.214930   -3.621210    1.781860
     41          1           0        2.982770   -3.981230   -1.281870
     42          1           0        3.425270   -5.260480   -0.087130
     43          1           0        4.529510   -3.858120   -0.347320
 ---------------------------------------------------------------------
                    Distance matrix (angstroms):
                    1          2          3          4          5
     1  C    0.000000
     2  C    1.525851   0.000000
     3  C    2.523866   1.532426   0.000000
     4  N    3.811854   2.464075   1.453943   0.000000
     5  C    4.976154   3.758206   2.459780   1.365004   0.000000
     6  O    5.160682   4.222776   2.719293   2.227327   1.220101
     7  N    6.171812   4.823398   3.713332   2.368692   1.373029
     8  C    7.497589   6.211083   4.989520   3.747356   2.531594
     9  C    7.948100   6.834228   5.436887   4.452702   3.093962
    10  C    8.604977   7.226529   6.150623   4.794518   3.749070
    11  C    9.893344   8.552911   7.403384   6.099511   4.955469
    12  C   10.258088   9.034485   7.734309   6.579071   5.292583
    13  C    9.351005   8.250767   6.846348   5.863320   4.508118
    14  H    1.110377   2.167199   3.484274   4.623800   5.880209
    15  H    1.110893   2.177389   2.782032   4.126175   5.158370
    16  H    1.110900   2.177288   2.782187   4.126078   5.158707
    17  H    2.159241   1.111828   2.172819   2.719801   4.023064
    18  H    2.158960   1.111797   2.172995   2.719920   4.023661
    19  H    2.758582   2.168682   1.112472   2.101171   2.763138
    20  H    2.758591   2.168477   1.112466   2.101244   2.762698
    21  H    4.105953   2.593236   2.239346   1.140767   2.169537
    22  H    6.274528   4.806986   4.011895   2.558386   2.140077
    23  H    7.375593   6.409575   4.928189   4.189887   2.851079
    24  H    8.598890   7.143842   6.258018   4.825413   4.027324
    25  H   10.730602   9.339468   8.277964   6.919118   5.863918
    26  C   10.002591   9.067645   7.581235   6.815380   5.456350
    27  C   11.773380  10.557819   9.249600   8.102524   6.813429
    28  F   12.298111  11.190424   9.794510   8.780999   7.437640
    29  F   12.346917  11.090531   9.839727   8.644254   7.408085
    30  F   12.359858  11.098590   9.851581   8.649894   7.416305
    31  F    9.212245   8.441234   6.915338   6.388754   5.092569
    32  F   10.841909   9.920845   8.442853   7.682812   6.338262
    33  F   10.856479   9.929521   8.456473   7.688757   6.347560
    34  O    5.302069   3.848024   4.130714   3.212936   4.051317
    35  O    7.098075   5.574316   5.305971   3.961630   4.066694
    36  C    6.616492   5.133934   5.209597   4.059305   4.545461
    37  C    7.692914   6.285490   6.572402   5.512167   6.045416
    38  C    8.663556   7.254900   7.473842   6.358116   6.762811
    39  H    7.376807   6.080024   6.622662   5.758723   6.505172
    40  H    8.351542   6.942389   7.160028   6.055031   6.480783
    41  H    8.268278   6.912987   7.188517   6.164755   6.645921
    42  H    9.502735   8.140100   8.466227   7.395979   7.843274
    43  H    9.166207   7.699812   7.704046   6.459273   6.637940
                    6          7          8          9         10
     6  O    0.000000
     7  N    2.261778   0.000000
     8  C    2.895286   1.445711   0.000000
     9  C    2.862565   2.534047   1.415103   0.000000
    10  C    4.276014   2.438664   1.401412   2.407337   0.000000
    11  C    5.270753   3.731282   2.435041   2.780632   1.389630
    12  C    5.284024   4.300955   2.857190   2.448659   2.437894
    13  C    4.226077   3.827736   2.478067   1.416607   2.814746
    14  H    6.182215   6.988511   8.365351   8.916352   9.393458
    15  H    5.188067   6.406214   7.663086   8.002317   8.823225
    16  H    5.189464   6.406747   7.663903   7.996312   8.830474
    17  H    4.632728   4.928631   6.335387   7.075416   7.240956
    18  H    4.634283   4.929608   6.336608   7.068744   7.250095
    19  H    2.722620   4.052515   5.197750   5.467539   6.427681
    20  H    2.720614   4.051637   5.196637   5.476673   6.417650
    21  H    3.253931   2.619779   4.063622   5.043960   4.835584
    22  H    3.255175   1.146590   2.206413   3.522549   2.615172
    23  H    2.217738   2.798764   2.166870   1.068972   3.388074
    24  H    4.800108   2.655256   2.165073   3.401706   1.080596
    25  H    6.282217   4.566694   3.400037   3.864287   2.128038
    26  C    4.863535   5.059959   3.849474   2.526724   4.335985
    27  C    6.755063   5.814655   4.374616   3.894640   3.781138
    28  F    7.160023   6.620523   5.184700   4.360422   4.879593
    29  F    7.443990   6.338601   4.955542   4.666867   4.178649
    30  F    7.461983   6.338343   4.955570   4.666869   4.178243
    31  F    4.241347   5.056335   4.142038   2.729576   4.997739
    32  F    5.755964   5.907226   4.671790   3.457129   4.995459
    33  F    5.779274   5.906380   4.671280   3.456948   4.994386
    34  O    5.229596   3.945511   5.224682   6.472831   5.504835
    35  O    5.255508   3.221647   4.018861   5.423050   3.788574
    36  C    5.765294   4.014026   5.037594   6.405748   4.967841
    37  C    7.265099   5.464639   6.377672   7.774635   6.100347
    38  C    7.965345   6.046405   6.791649   8.195904   6.325249
    39  H    7.710687   6.128731   7.182230   8.548511   7.046166
    40  H    7.682964   5.798862   6.584645   7.975202   6.185094
    41  H    7.818976   6.054149   6.879266   8.243268   6.543027
    42  H    9.051585   7.127700   7.846284   9.255368   7.310559
    43  H    7.807712   5.733890   6.264303   7.658965   5.613058
                   11         12         13         14         15
    11  C    0.000000
    12  C    1.402826   0.000000
    13  C    2.433721   1.428502   0.000000
    14  H   10.719008  11.171687  10.328386   0.000000
    15  H   10.068136  10.348565   9.378396   1.804701   0.000000
    16  H   10.075105  10.350263   9.373722   1.804675   1.810936
    17  H    8.588357   9.165279   8.477719   2.484613   2.503941
    18  H    8.596799   9.167384   8.472661   2.484422   3.089150
    19  H    7.610265   7.820555   6.839980   3.771442   3.128540
    20  H    7.601046   7.818504   6.846748   3.771247   2.551219
    21  H    6.211349   6.911660   6.407078   4.693023   4.561778
    22  H    4.004630   4.877386   4.684034   6.948416   6.614753
    23  H    3.849174   3.401351   2.127758   8.398920   7.364220
    24  H    2.119001   3.395103   3.894560   9.287720   8.889640
    25  H    1.084068   2.161810   3.424086  11.504594  10.940096
    26  C    3.853490   2.589807   1.522332  11.041580   9.937774
    27  C    2.472526   1.523525   2.632984  12.693359  11.846555
    28  F    3.693448   2.446304   2.948279  13.276059  12.303377
    29  F    2.870414   2.368054   3.539001  13.232487  12.365020
    30  F    2.870114   2.368063   3.538939  13.242973  12.544108
    31  F    4.847739   3.759541   2.418718  10.288933   9.081866
    32  F    4.338769   3.039319   2.378941  11.880051  10.669567
    33  F    4.337887   3.038964   2.378889  11.891474  10.878240
    34  O    6.866945   7.871035   7.700397   5.504721   5.904954
    35  O    5.033869   6.224713   6.392784   7.498535   7.588050
    36  C    6.243571   7.402105   7.475693   6.852318   7.185603
    37  C    7.263261   8.522454   8.754089   7.757448   8.311248
    38  C    7.362544   8.678992   9.057468   8.736819   9.145488
    39  H    8.262813   9.480751   9.613146   7.288198   8.042841
    40  H    7.257823   8.544590   8.869806   8.435493   9.045259
    41  H    7.625468   8.880602   9.162719   8.318441   8.648042
    42  H    8.282852   9.630237  10.077866   9.483450  10.021709
    43  H    6.528388   7.880184   8.389299   9.357150   9.604926
                   16         17         18         19         20
    16  H    0.000000
    17  H    3.089291   0.000000
    18  H    2.503309   1.808539   0.000000
    19  H    2.551375   3.090258   2.504979   0.000000
    20  H    3.129111   2.504412   3.090224   1.811457   0.000000
    21  H    4.561218   2.565507   2.565049   2.963314   2.963691
    22  H    6.615754   4.760951   4.762769   4.493512   4.491737
    23  H    7.350808   6.747562   6.732962   4.849759   4.870618
    24  H    8.901751   7.060197   7.075825   6.636198   6.619707
    25  H   10.950802   9.312932   9.325823   8.528917   8.515086
    26  C    9.927086   9.380214   9.368916   7.444854   7.459650
    27  C   11.849217  10.680009  10.683145   9.311504   9.308323
    28  F   12.301660  11.382723  11.380985   9.764413   9.766921
    29  F   12.533771  11.080210  11.268191  10.040051   9.828659
    30  F   12.386280  11.266745  11.091215   9.850927  10.048846
    31  F    9.064198   8.840381   8.822179   6.680280   6.704953
    32  F   10.850170  10.127283  10.317142   8.418663   8.185064
    33  F   10.677675  10.332379  10.121298   8.189897   8.450320
    34  O    5.877676   3.485247   3.439641   4.831302   4.863720
    35  O    7.567144   5.302883   5.273578   5.895400   5.921624
    36  C    7.156493   4.771289   4.728089   5.862187   5.896984
    37  C    8.270639   5.840275   5.783134   7.226638   7.272296
    38  C    9.347301   6.647174   6.922534   8.243040   8.012601
    39  H    7.991706   5.591381   5.518411   7.292193   7.347364
    40  H    8.820069   6.633564   6.324190   7.687142   7.943816
    41  H    9.049553   6.172233   6.723214   8.062512   7.608159
    42  H   10.192586   7.518211   7.744918   9.222375   9.032274
    43  H    9.807031   7.146475   7.416183   8.439439   8.202915
                   21         22         23         24         25
    21  H    0.000000
    22  H    2.278173   0.000000
    23  H    4.985855   3.920784   0.000000
    24  H    4.609741   2.339781   4.307721   0.000000
    25  H    6.894909   4.625603   4.933013   2.402013   0.000000
    26  C    7.519754   6.030683   2.658155   5.416236   4.744866
    27  C    8.416711   6.330536   4.752433   4.590562   2.635641
    28  F    9.238781   7.295135   4.992954   5.792918   3.999386
    29  F    8.870639   6.731380   5.561347   4.820674   2.705905
    30  F    8.868885   6.722852   5.560404   4.820485   2.705561
    31  F    7.251554   6.147743   2.287974   6.054106   5.839824
    32  F    8.366950   6.831197   3.632885   6.042101   5.091253
    33  F    8.364470   6.822002   3.631509   6.041106   5.090302
    34  O    2.072992   3.028132   6.667059   4.876503   7.275742
    35  O    3.098762   2.078104   5.953206   2.927405   5.252664
    36  C    2.992411   2.903060   6.809725   4.145233   6.475867
    37  C    4.409270   4.330817   8.247905   5.151284   7.309923
    38  C    5.302912   4.920069   8.762887   5.314897   7.268538
    39  H    4.619890   5.038616   8.923029   6.146393   8.367187
    40  H    4.999963   4.679625   8.509819   5.209618   7.218289
    41  H    5.135590   4.987545   8.738815   5.607441   7.615384
    42  H    6.314133   5.993290   9.844137   6.271046   8.098037
    43  H    5.496450   4.638016   8.329946   4.567616   6.333597
                   26         27         28         29         30
    26  C    0.000000
    27  C    3.150958   0.000000
    28  F    2.739177   1.377572   0.000000
    29  F    4.114912   1.383671   2.228433   0.000000
    30  F    4.114399   1.383679   2.228423   2.247232   0.000000
    31  F    1.384841   4.517729   4.093613   5.440431   5.439898
    32  F    1.383344   3.182378   2.509023   3.764860   4.389144
    33  F    1.383348   3.182206   2.509519   4.389459   3.763818
    34  O    8.998836   9.282044  10.304721   9.587490   9.553556
    35  O    7.843752   7.504490   8.661590   7.715436   7.666769
    36  C    8.885342   8.711110   9.845366   8.925787   8.875599
    37  C   10.206957   9.725799  10.938042   9.843992   9.773969
    38  C   10.541185   9.774781  11.037704   9.677030   9.881276
    39  H   11.028721  10.732693  11.913227  10.879341  10.807891
    40  H   10.336340   9.674682  10.913644   9.853383   9.565665
    41  H   10.605546  10.023436  11.240578   9.866827  10.275702
    42  H   11.574316  10.661044  11.954526  10.523485  10.689907
    43  H    9.894039   8.885864  10.180868   8.724660   8.963320
                   31         32         33         34         35
    31  F    0.000000
    32  F    2.228981   0.000000
    33  F    2.229024   2.267554   0.000000
    34  O    8.953220   9.806437   9.772162   0.000000
    35  O    8.123117   8.580788   8.535761   2.229011   0.000000
    36  C    9.047603   9.646946   9.599211   1.349051   1.223898
    37  C   10.456055  10.935505  10.870967   2.467302   2.364632
    38  C   10.902161  11.102032  11.281098   3.526081   2.963203
    39  H   11.175525  11.784490  11.717005   2.547796   3.258525
    40  H   10.660031  11.128519  10.871259   3.182338   2.694008
    41  H   10.890302  11.091283  11.458824   3.481596   3.292750
    42  H   11.971439  12.129999  12.274909   4.424969   3.984915
    43  H   10.373157  10.400779  10.602552   3.983776   2.745873
                   36         37         38         39         40
    36  C    0.000000
    37  C    1.500225   0.000000
    38  C    2.495309   1.525477   0.000000
    39  H    2.145496   1.111444   2.158424   0.000000
    40  H    2.140360   1.111049   2.166593   1.804083   0.000000
    41  H    2.756477   2.175874   1.111086   2.503097   3.093534
    42  H    3.453098   2.166566   1.110379   2.481982   2.494909
    43  H    2.763961   2.179106   1.111088   3.090050   2.513494
                   41         42         43
    41  H    0.000000
    42  H    1.805461   0.000000
    43  H    1.811338   1.803790   0.000000
 Stoichiometry    C15H17F6N2O3(1-)
 Framework group  C1[X(C15H17F6N2O3)]
 Deg. of freedom   123
 Full point group                 C1      NOp   1
 Largest Abelian subgroup         C1      NOp   1
 Largest concise Abelian subgroup C1      NOp   1
                         Standard orientation:                         
 ---------------------------------------------------------------------
 Center     Atomic      Atomic             Coordinates (Angstroms)
 Number     Number       Type             X           Y           Z
 ---------------------------------------------------------------------
      1          6           0       -6.033876   -3.963213    0.068741
      2          6           0       -5.315324   -2.617921    0.022981
      3          6           0       -3.793988   -2.800306    0.047536
      4          7           0       -3.110581   -1.517741    0.003555
      5          6           0       -1.748150   -1.434983    0.016593
      6          8           0       -1.095571   -2.464619    0.067946
      7          7           0       -1.139026   -0.205158   -0.024729
      8          6           0        0.277708    0.082781   -0.018870
      9          6           0        1.298630   -0.896923    0.001534
     10          6           0        0.672622    1.427289   -0.036169
     11          6           0        2.014111    1.789870   -0.032267
     12          6           0        3.035781    0.828784   -0.011674
     13          6           0        2.672779   -0.552721    0.005431
     14          1           0       -7.131943   -3.799411    0.049965
     15          1           0       -5.771628   -4.509710    0.999682
     16          1           0       -5.751498   -4.581837   -0.809705
     17          1           0       -5.630380   -2.011738    0.900160
     18          1           0       -5.610201   -2.084406   -0.906806
     19          1           0       -3.485621   -3.409290   -0.830895
     20          1           0       -3.506371   -3.336296    0.978971
     21          1           0       -3.734110   -0.563576   -0.042609
     22          1           0       -1.839632    0.701508   -0.066889
     23          1           0        1.058124   -1.938432    0.012386
     24          1           0       -0.060471    2.221026   -0.051787
     25          1           0        2.258840    2.845868   -0.045667
     26          6           0        3.702983   -1.673303    0.027104
     27          6           0        4.453455    1.386749   -0.010424
     28          9           0        5.450276    0.436139    0.009453
     29          9           0        4.619749    2.191210    1.103010
     30          9           0        4.634256    2.159403   -1.143951
     31          9           0        3.120140   -2.929445    0.040771
     32          9           0        4.483845   -1.570695    1.164366
     33          9           0        4.497678   -1.601712   -1.102934
     34          8           0       -4.824342    1.191405   -0.212100
     35          8           0       -2.974056    2.434051   -0.239788
     36          6           0       -4.196273    2.383449   -0.279189
     37          6           0       -4.998211    3.644677   -0.409093
     38          6           0       -4.753032    4.576072    0.773899
     39          1           0       -6.080426    3.395066   -0.451682
     40          1           0       -4.717420    4.160589   -1.352185
     41          1           0       -5.045265    4.077381    1.722803
     42          1           0       -5.360714    5.497589    0.653601
     43          1           0       -3.681051    4.863355    0.827199
 ---------------------------------------------------------------------
 Rotational constants (GHZ):      0.2496394      0.0854472      0.0656421
 General basis read from cards:  (6D, 7F)
 There are   528 symmetry adapted cartesian basis functions of A   symmetry.
 There are   528 symmetry adapted basis functions of A   symmetry.
   528 basis functions,   900 primitive gaussians,   528 cartesian basis functions
   100 alpha electrons      100 beta electrons
       nuclear repulsion energy      2404.5664813147 Hartrees.
 NAtoms=   43 NActive=   43 NUniq=   43 SFac= 1.00D+00 NAtFMM=   60 NAOKFM=F Big=F
 Integral buffers will be    131072 words long.
 Raffenetti 2 integral format.
 Two-electron integral symmetry is turned on.
 One-electron integrals computed using PRISM.
 NBasis=   528 RedAO= T EigKep=  1.15D-06  NBF=   528
 NBsUse=   526 1.00D-06 EigRej=  7.95D-07 NBFU=   526
 ExpMin= 4.38D-02 ExpMax= 7.00D+03 ExpMxC= 1.05D+03 IAcc=3 IRadAn=         5 AccDes= 0.00D+00
 Harris functional with IExCor= 1009 and IRadAn=       5 diagonalized for initial guess.
 HarFok:  IExCor= 1009 AccDes= 0.00D+00 IRadAn=         5 IDoV= 1 UseB2=F ITyADJ=14
 ICtDFT=  3500011 ScaDFX=  1.000000  1.000000  1.000000  1.000000
 FoFCou: FMM=F IPFlag=           0 FMFlag=      100000 FMFlg1=           0
         NFxFlg=           0 DoJE=T BraDBF=F KetDBF=T FulRan=T
         wScrn=  0.000000 ICntrl=     500 IOpCl=  0 I1Cent=   200000004 NGrid=           0
         NMat0=    1 NMatS0=      1 NMatT0=    0 NMatD0=    1 NMtDS0=    0 NMtDT0=    0
 Petite list used in FoFCou.
 Requested convergence on RMS density matrix=1.00D-08 within 128 cycles.
 Requested convergence on MAX density matrix=1.00D-06.
 Requested convergence on             energy=1.00D-06.
 No special actions if energy rises.
 SCF Done:  E(RM062X) =  -1515.66455707     A.U. after   16 cycles
            NFock= 16  Conv=0.44D-08     -V/T= 2.0090

 **********************************************************************

            Population analysis using the SCF density.

 **********************************************************************

 Orbital symmetries:
       Occupied  (A) (A) (A) (A) (A) (A) (A) (A) (A) (A) (A) (A)
                 (A) (A) (A) (A) (A) (A) (A) (A) (A) (A) (A) (A)
                 (A) (A) (A) (A) (A) (A) (A) (A) (A) (A) (A) (A)
                 (A) (A) (A) (A) (A) (A) (A) (A) (A) (A) (A) (A)
                 (A) (A) (A) (A) (A) (A) (A) (A) (A) (A) (A) (A)
                 (A) (A) (A) (A) (A) (A) (A) (A) (A) (A) (A) (A)
                 (A) (A) (A) (A) (A) (A) (A) (A) (A) (A) (A) (A)
                 (A) (A) (A) (A) (A) (A) (A) (A) (A) (A) (A) (A)
                 (A) (A) (A) (A)
       Virtual   (A) (A) (A) (A) (A) (A) (A) (A) (A) (A) (A) (A)
                 (A) (A) (A) (A) (A) (A) (A) (A) (A) (A) (A) (A)
                 (A) (A) (A) (A) (A) (A) (A) (A) (A) (A) (A) (A)
                 (A) (A) (A) (A) (A) (A) (A) (A) (A) (A) (A) (A)
                 (A) (A) (A) (A) (A) (A) (A) (A) (A) (A) (A) (A)
                 (A) (A) (A) (A) (A) (A) (A) (A) (A) (A) (A) (A)
                 (A) (A) (A) (A) (A) (A) (A) (A) (A) (A) (A) (A)
                 (A) (A) (A) (A) (A) (A) (A) (A) (A) (A) (A) (A)
                 (A) (A) (A) (A) (A) (A) (A) (A) (A) (A) (A) (A)
                 (A) (A) (A) (A) (A) (A) (A) (A) (A) (A) (A) (A)
                 (A) (A) (A) (A) (A) (A) (A) (A) (A) (A) (A) (A)
                 (A) (A) (A) (A) (A) (A) (A) (A) (A) (A) (A) (A)
                 (A) (A) (A) (A) (A) (A) (A) (A) (A) (A) (A) (A)
                 (A) (A) (A) (A) (A) (A) (A) (A) (A) (A) (A) (A)
                 (A) (A) (A) (A) (A) (A) (A) (A) (A) (A) (A) (A)
                 (A) (A) (A) (A) (A) (A) (A) (A) (A) (A) (A) (A)
                 (A) (A) (A) (A) (A) (A) (A) (A) (A) (A) (A) (A)
                 (A) (A) (A) (A) (A) (A) (A) (A) (A) (A) (A) (A)
                 (A) (A) (A) (A) (A) (A) (A) (A) (A) (A) (A) (A)
                 (A) (A) (A) (A) (A) (A) (A) (A) (A) (A) (A) (A)
                 (A) (A) (A) (A) (A) (A) (A) (A) (A) (A) (A) (A)
                 (A) (A) (A) (A) (A) (A) (A) (A) (A) (A) (A) (A)
                 (A) (A) (A) (A) (A) (A) (A) (A) (A) (A) (A) (A)
                 (A) (A) (A) (A) (A) (A) (A) (A) (A) (A) (A) (A)
                 (A) (A) (A) (A) (A) (A) (A) (A) (A) (A) (A) (A)
                 (A) (A) (A) (A) (A) (A) (A) (A) (A) (A) (A) (A)
                 (A) (A) (A) (A) (A) (A) (A) (A) (A) (A) (A) (A)
                 (A) (A) (A) (A) (A) (A) (A) (A) (A) (A) (A) (A)
                 (A) (A) (A) (A) (A) (A) (A) (A) (A) (A) (A) (A)
                 (A) (A) (A) (A) (A) (A) (A) (A) (A) (A) (A) (A)
                 (A) (A) (A) (A) (A) (A) (A) (A) (A) (A) (A) (A)
                 (A) (A) (A) (A) (A) (A) (A) (A) (A) (A) (A) (A)
                 (A) (A) (A) (A) (A) (A) (A) (A) (A) (A) (A) (A)
                 (A) (A) (A) (A) (A) (A) (A) (A) (A) (A) (A) (A)
                 (A) (A) (A) (A) (A) (A) (A) (A) (A) (A) (A) (A)
                 (A) (A) (A) (A) (A) (A)
 The electronic state is 1-A.
 Alpha  occ. eigenvalues --  -25.22727 -25.22616 -25.22611 -25.22482 -25.22257
 Alpha  occ. eigenvalues --  -25.22256 -19.49240 -19.46855 -19.44410 -14.70023
 Alpha  occ. eigenvalues --  -14.66677 -10.74663 -10.74606 -10.56838 -10.53848
 Alpha  occ. eigenvalues --  -10.52352 -10.51498 -10.50874 -10.49774 -10.48566
 Alpha  occ. eigenvalues --  -10.48326 -10.48300 -10.46299 -10.45670 -10.44275
 Alpha  occ. eigenvalues --  -10.43462  -1.37020  -1.36322  -1.29113  -1.28885
 Alpha  occ. eigenvalues --   -1.28635  -1.28291  -1.06563  -1.02113  -0.93527
 Alpha  occ. eigenvalues --   -0.90491  -0.88972  -0.88707  -0.81051  -0.80367
 Alpha  occ. eigenvalues --   -0.78331  -0.75683  -0.73716  -0.71762  -0.67972
 Alpha  occ. eigenvalues --   -0.64481  -0.64207  -0.61295  -0.60635  -0.60442
 Alpha  occ. eigenvalues --   -0.60036  -0.59724  -0.58704  -0.58117  -0.55575
 Alpha  occ. eigenvalues --   -0.53388  -0.50637  -0.49466  -0.49271  -0.48845
 Alpha  occ. eigenvalues --   -0.48637  -0.48154  -0.46652  -0.46381  -0.45787
 Alpha  occ. eigenvalues --   -0.45709  -0.45427  -0.45110  -0.44068  -0.43927
 Alpha  occ. eigenvalues --   -0.43190  -0.42943  -0.42727  -0.41657  -0.41514
 Alpha  occ. eigenvalues --   -0.41190  -0.40223  -0.39664  -0.38744  -0.38090
 Alpha  occ. eigenvalues --   -0.36522  -0.35851  -0.35768  -0.35668  -0.34518
 Alpha  occ. eigenvalues --   -0.34055  -0.33042  -0.32841  -0.30789  -0.30525
 Alpha  occ. eigenvalues --   -0.29736  -0.28810  -0.28287  -0.24459  -0.23003
 Alpha  occ. eigenvalues --   -0.20450  -0.18992  -0.18164  -0.17211  -0.16343
 Alpha virt. eigenvalues --    0.07072   0.08727   0.09720   0.10064   0.10842
 Alpha virt. eigenvalues --    0.11160   0.11601   0.12366   0.12437   0.12704
 Alpha virt. eigenvalues --    0.13037   0.13296   0.13730   0.14019   0.14605
 Alpha virt. eigenvalues --    0.14931   0.15206   0.15380   0.15887   0.16455
 Alpha virt. eigenvalues --    0.17280   0.17465   0.17544   0.17893   0.18164
 Alpha virt. eigenvalues --    0.18841   0.19166   0.19679   0.19910   0.20021
 Alpha virt. eigenvalues --    0.20676   0.20985   0.21230   0.21252   0.21481
 Alpha virt. eigenvalues --    0.22038   0.22146   0.22546   0.22908   0.23361
 Alpha virt. eigenvalues --    0.23788   0.24408   0.24801   0.25016   0.25103
 Alpha virt. eigenvalues --    0.25630   0.25920   0.26234   0.27362   0.27393
 Alpha virt. eigenvalues --    0.27962   0.28053   0.28481   0.28604   0.29053
 Alpha virt. eigenvalues --    0.29363   0.30195   0.30281   0.30350   0.31166
 Alpha virt. eigenvalues --    0.31572   0.31662   0.32026   0.32210   0.32918
 Alpha virt. eigenvalues --    0.33284   0.33345   0.33797   0.33848   0.34304
 Alpha virt. eigenvalues --    0.34701   0.34877   0.35037   0.35583   0.35928
 Alpha virt. eigenvalues --    0.36174   0.36709   0.36926   0.37448   0.37526
 Alpha virt. eigenvalues --    0.38065   0.38467   0.38771   0.39267   0.39544
 Alpha virt. eigenvalues --    0.39721   0.40113   0.40326   0.40656   0.41455
 Alpha virt. eigenvalues --    0.41573   0.41797   0.42200   0.42686   0.42868
 Alpha virt. eigenvalues --    0.43679   0.43830   0.43979   0.44484   0.44608
 Alpha virt. eigenvalues --    0.44995   0.45153   0.45725   0.45883   0.46105
 Alpha virt. eigenvalues --    0.46565   0.46963   0.47199   0.47524   0.47815
 Alpha virt. eigenvalues --    0.48265   0.48587   0.49180   0.49427   0.49707
 Alpha virt. eigenvalues --    0.49900   0.50376   0.50817   0.50860   0.51959
 Alpha virt. eigenvalues --    0.52180   0.52356   0.52777   0.53525   0.54195
 Alpha virt. eigenvalues --    0.54478   0.54845   0.54996   0.55754   0.56155
 Alpha virt. eigenvalues --    0.56492   0.58247   0.58586   0.58891   0.59905
 Alpha virt. eigenvalues --    0.60665   0.61013   0.62412   0.63510   0.64251
 Alpha virt. eigenvalues --    0.65097   0.65807   0.66288   0.67451   0.69184
 Alpha virt. eigenvalues --    0.71146   0.72247   0.73426   0.76275   0.78197
 Alpha virt. eigenvalues --    0.79553   0.79846   0.79910   0.82008   0.82554
 Alpha virt. eigenvalues --    0.83127   0.83298   0.83959   0.84927   0.85922
 Alpha virt. eigenvalues --    0.86207   0.86639   0.87457   0.88397   0.89127
 Alpha virt. eigenvalues --    0.90489   0.90899   0.91119   0.92249   0.92398
 Alpha virt. eigenvalues --    0.92831   0.93898   0.94911   0.95047   0.97102
 Alpha virt. eigenvalues --    0.98039   0.98324   0.99020   0.99983   1.00269
 Alpha virt. eigenvalues --    1.01060   1.01982   1.02811   1.04296   1.06268
 Alpha virt. eigenvalues --    1.06938   1.07734   1.08581   1.09340   1.09521
 Alpha virt. eigenvalues --    1.10927   1.11523   1.12639   1.14587   1.15699
 Alpha virt. eigenvalues --    1.16418   1.16704   1.17202   1.20002   1.21016
 Alpha virt. eigenvalues --    1.21463   1.23047   1.24033   1.24841   1.25516
 Alpha virt. eigenvalues --    1.25797   1.26766   1.27074   1.27690   1.28367
 Alpha virt. eigenvalues --    1.29102   1.29614   1.30512   1.31203   1.33662
 Alpha virt. eigenvalues --    1.34095   1.34702   1.37744   1.38329   1.40385
 Alpha virt. eigenvalues --    1.40767   1.42301   1.42468   1.42807   1.45196
 Alpha virt. eigenvalues --    1.47143   1.47489   1.50009   1.50649   1.50936
 Alpha virt. eigenvalues --    1.52411   1.53387   1.53836   1.55635   1.56136
 Alpha virt. eigenvalues --    1.57746   1.57996   1.59030   1.59780   1.60132
 Alpha virt. eigenvalues --    1.61129   1.61230   1.61453   1.61930   1.64303
 Alpha virt. eigenvalues --    1.67662   1.68033   1.68822   1.69705   1.71068
 Alpha virt. eigenvalues --    1.72579   1.73080   1.74155   1.74862   1.75084
 Alpha virt. eigenvalues --    1.75817   1.76637   1.76826   1.77420   1.78553
 Alpha virt. eigenvalues --    1.80965   1.81388   1.81448   1.82255   1.83227
 Alpha virt. eigenvalues --    1.83406   1.84073   1.84503   1.84923   1.85831
 Alpha virt. eigenvalues --    1.86159   1.87384   1.88753   1.89063   1.89476
 Alpha virt. eigenvalues --    1.90803   1.91078   1.91317   1.93355   1.94397
 Alpha virt. eigenvalues --    1.95283   1.95537   1.95608   1.96287   1.97089
 Alpha virt. eigenvalues --    1.97146   1.97235   1.97953   1.98316   1.98916
 Alpha virt. eigenvalues --    1.99646   1.99715   2.00190   2.00766   2.02611
 Alpha virt. eigenvalues --    2.03101   2.03574   2.04783   2.05360   2.05616
 Alpha virt. eigenvalues --    2.06109   2.06283   2.07711   2.08608   2.09262
 Alpha virt. eigenvalues --    2.09467   2.10952   2.11064   2.12600   2.12910
 Alpha virt. eigenvalues --    2.12969   2.13527   2.13713   2.15254   2.15264
 Alpha virt. eigenvalues --    2.15749   2.15915   2.16201   2.16987   2.17888
 Alpha virt. eigenvalues --    2.18060   2.18313   2.19113   2.20070   2.21948
 Alpha virt. eigenvalues --    2.23565   2.23711   2.25021   2.26244   2.27251
 Alpha virt. eigenvalues --    2.28160   2.28563   2.29631   2.30631   2.32248
 Alpha virt. eigenvalues --    2.33721   2.34080   2.35333   2.37253   2.37505
 Alpha virt. eigenvalues --    2.38088   2.39396   2.39727   2.41722   2.42604
 Alpha virt. eigenvalues --    2.44373   2.46212   2.46800   2.47320   2.48592
 Alpha virt. eigenvalues --    2.48761   2.49807   2.50885   2.51796   2.52692
 Alpha virt. eigenvalues --    2.53973   2.59374   2.60732   2.62212   2.64147
 Alpha virt. eigenvalues --    2.64501   2.66823   2.72087   2.72715   2.73073
 Alpha virt. eigenvalues --    2.73676   2.75818   2.76984   2.78070   2.81223
 Alpha virt. eigenvalues --    2.83269   2.85114   2.85286   2.85637   2.87507
 Alpha virt. eigenvalues --    2.88166   2.89391   2.90674   2.93027   2.94900
 Alpha virt. eigenvalues --    2.97588   2.97855   2.99252   3.03665   3.10496
 Alpha virt. eigenvalues --    3.13361   3.17082   3.21622   3.23299   3.24218
 Alpha virt. eigenvalues --    3.26065   3.29207   3.31863   3.34815   3.37472
 Alpha virt. eigenvalues --    3.38498   3.39329   3.44274   3.47563   3.51308
 Alpha virt. eigenvalues --    4.30763   4.35310   4.36353   4.37959   4.41849
 Alpha virt. eigenvalues --    4.44095   4.49676   4.50732   4.53606   4.55394
 Alpha virt. eigenvalues --    4.57453   4.58702   4.65646   4.67783   4.69717
 Alpha virt. eigenvalues --    4.72766   4.74955   4.84124   4.87570   4.91343
 Alpha virt. eigenvalues --    5.49534   5.96125   6.23672   6.46211   6.96269
 Alpha virt. eigenvalues --    7.22778
          Condensed to atoms (all electrons):
               1          2          3          4          5          6
     1  C    5.883978  -0.254033   0.044582  -0.023254  -0.076679  -0.001246
     2  C   -0.254033   6.439704  -0.538026  -0.070865   0.197586   0.024651
     3  C    0.044582  -0.538026   7.339254   0.360204  -0.878408  -0.115738
     4  N   -0.023254  -0.070865   0.360204   7.723737   0.490935  -0.186411
     5  C   -0.076679   0.197586  -0.878408   0.490935   6.883573   0.617494
     6  O   -0.001246   0.024651  -0.115738  -0.186411   0.617494   8.317422
     7  N   -0.005617   0.017617  -0.222716  -0.381217   0.216647  -0.067711
     8  C   -0.011218   0.032965  -0.432042  -0.216079  -0.700294  -0.407645
     9  C    0.001724  -0.022872   0.012669   0.051134  -0.080232   0.456827
    10  C   -0.003726   0.013742  -0.134767  -0.110529  -0.601526  -0.109443
    11  C   -0.000505   0.001251  -0.018836  -0.043211  -0.118622  -0.010497
    12  C   -0.000587   0.002574  -0.068062  -0.040593  -0.855178  -0.007116
    13  C    0.001062  -0.005437   0.030879   0.064608   0.311057   0.088302
    14  H    0.457129  -0.136390   0.031493   0.000267  -0.002218   0.000005
    15  H    0.423100  -0.070486  -0.007578  -0.000209  -0.001179  -0.000043
    16  H    0.420103  -0.068186  -0.006389  -0.000156  -0.001646  -0.000044
    17  H   -0.039684   0.421925  -0.061510   0.004382  -0.010325  -0.000199
    18  H   -0.037083   0.423059  -0.067233   0.004421  -0.007441  -0.000183
    19  H   -0.009069  -0.056987   0.452536  -0.058650  -0.023247   0.000725
    20  H   -0.007996  -0.056973   0.454249  -0.058256  -0.025550   0.000679
    21  H    0.002058   0.003123  -0.063454   0.164507   0.031479   0.003576
    22  H    0.000228   0.000408   0.005543   0.032971  -0.029839   0.003341
    23  H    0.000014  -0.000064   0.003359   0.000747   0.026297  -0.001196
    24  H   -0.000001   0.000016  -0.000435   0.000612  -0.013112   0.000067
    25  H    0.000000  -0.000000   0.000048   0.000015   0.006489  -0.000002
    26  C    0.000161  -0.001057   0.017100   0.014594   0.212735   0.008407
    27  C   -0.000029   0.000103  -0.004817  -0.002213  -0.174644   0.001052
    28  F    0.000000   0.000000   0.000005   0.000001   0.000873   0.000003
    29  F   -0.000000  -0.000000  -0.000001   0.000000  -0.000088  -0.000001
    30  F   -0.000000  -0.000000  -0.000002   0.000000  -0.000161  -0.000000
    31  F   -0.000000   0.000002   0.000138  -0.000011   0.002173  -0.000632
    32  F    0.000000  -0.000001   0.000005   0.000005   0.000799   0.000017
    33  F    0.000000  -0.000001  -0.000002   0.000005   0.000290   0.000004
    34  O    0.008312   0.020182  -0.016639  -0.038822   0.002410  -0.000523
    35  O   -0.000421  -0.002366   0.004309   0.008629   0.015860  -0.000092
    36  C   -0.004019  -0.005805   0.003760   0.000410  -0.006037  -0.001160
    37  C    0.003723   0.004124   0.012719  -0.013667  -0.020953  -0.000740
    38  C   -0.000221  -0.000880   0.000533   0.000328  -0.001119  -0.000022
    39  H    0.000012   0.000042   0.000003  -0.000203   0.000029  -0.000000
    40  H   -0.000005  -0.000062   0.000000   0.000077  -0.000127   0.000000
    41  H   -0.000002  -0.000018  -0.000011   0.000024  -0.000017   0.000000
    42  H    0.000000   0.000005  -0.000001   0.000001   0.000009   0.000000
    43  H    0.000001   0.000015  -0.000002  -0.000018   0.000037  -0.000000
               7          8          9         10         11         12
     1  C   -0.005617  -0.011218   0.001724  -0.003726  -0.000505  -0.000587
     2  C    0.017617   0.032965  -0.022872   0.013742   0.001251   0.002574
     3  C   -0.222716  -0.432042   0.012669  -0.134767  -0.018836  -0.068062
     4  N   -0.381217  -0.216079   0.051134  -0.110529  -0.043211  -0.040593
     5  C    0.216647  -0.700294  -0.080232  -0.601526  -0.118622  -0.855178
     6  O   -0.067711  -0.407645   0.456827  -0.109443  -0.010497  -0.007116
     7  N    7.877753  -0.060638   0.091918  -0.045498  -0.036602  -0.098917
     8  C   -0.060638  23.914489  -6.053090   0.717415  -0.679041   0.805642
     9  C    0.091918  -6.053090  17.836153  -4.818761  -3.379729  -4.951685
    10  C   -0.045498   0.717415  -4.818761  19.036996  -2.754312   0.144556
    11  C   -0.036602  -0.679041  -3.379729  -2.754312  16.613635  -0.282949
    12  C   -0.098917   0.805642  -4.951685   0.144556  -0.282949  22.480476
    13  C    0.188027  -6.977781   6.218780  -3.746197  -4.002449  -6.302806
    14  H    0.000007  -0.000036  -0.000002  -0.000001   0.000000  -0.000000
    15  H    0.000002   0.000006  -0.000034   0.000002   0.000000  -0.000000
    16  H    0.000002   0.000002  -0.000044   0.000004   0.000000  -0.000000
    17  H   -0.000361  -0.000744  -0.000296   0.000177   0.000008  -0.000002
    18  H   -0.000260  -0.000716  -0.000179   0.000132   0.000006  -0.000001
    19  H   -0.000127  -0.000736  -0.000971   0.000236   0.000004   0.000016
    20  H   -0.000208   0.001497  -0.004075   0.000504   0.000050  -0.000049
    21  H    0.032263   0.006442  -0.003232   0.005203   0.000459   0.000476
    22  H    0.155921   0.008737   0.056998  -0.068276  -0.001437  -0.003022
    23  H   -0.012756  -0.069272   0.422255  -0.029241  -0.013757   0.003060
    24  H   -0.005170  -0.066281  -0.000157   0.295456   0.060669  -0.021176
    25  H    0.000700   0.049858   0.008087  -0.178939   0.331529   0.080766
    26  C    0.047290  -4.247796   1.031919   0.698866   0.009276  -1.221898
    27  C   -0.015256   0.273953  -0.786040  -2.608326   0.397795  -2.776727
    28  F    0.000070   0.021713   0.062717   0.012265   0.078217   0.013909
    29  F    0.000005   0.008051  -0.009834   0.107210  -0.064499   0.150335
    30  F    0.000003   0.007371  -0.010687   0.114887  -0.068370   0.143589
    31  F   -0.001031   0.211294   0.089681   0.005164   0.017061   0.012147
    32  F    0.000214   0.041666   0.015018  -0.012334   0.002515  -0.152093
    33  F    0.000218   0.036831   0.007533  -0.012541   0.003132  -0.150373
    34  O    0.014829  -0.008780  -0.001928  -0.003955  -0.004700   0.001088
    35  O   -0.007997  -0.231730  -0.013566   0.165541   0.076336  -0.004557
    36  C   -0.018890   0.096818  -0.000985  -0.050415  -0.044114  -0.000170
    37  C   -0.003416  -0.028233  -0.025581   0.028571   0.004784   0.003911
    38  C    0.000050  -0.006389  -0.000765   0.004218   0.003258  -0.000318
    39  H    0.000150  -0.000637  -0.000048   0.000476   0.000020   0.000005
    40  H   -0.000068  -0.000466  -0.000114   0.000647   0.000166   0.000007
    41  H    0.000009  -0.000197  -0.000041   0.000229   0.000049   0.000005
    42  H   -0.000005   0.000074   0.000005  -0.000087  -0.000009  -0.000000
    43  H    0.000098  -0.000313  -0.000013   0.000391  -0.000328  -0.000023
              13         14         15         16         17         18
     1  C    0.001062   0.457129   0.423100   0.420103  -0.039684  -0.037083
     2  C   -0.005437  -0.136390  -0.070486  -0.068186   0.421925   0.423059
     3  C    0.030879   0.031493  -0.007578  -0.006389  -0.061510  -0.067233
     4  N    0.064608   0.000267  -0.000209  -0.000156   0.004382   0.004421
     5  C    0.311057  -0.002218  -0.001179  -0.001646  -0.010325  -0.007441
     6  O    0.088302   0.000005  -0.000043  -0.000044  -0.000199  -0.000183
     7  N    0.188027   0.000007   0.000002   0.000002  -0.000361  -0.000260
     8  C   -6.977781  -0.000036   0.000006   0.000002  -0.000744  -0.000716
     9  C    6.218780  -0.000002  -0.000034  -0.000044  -0.000296  -0.000179
    10  C   -3.746197  -0.000001   0.000002   0.000004   0.000177   0.000132
    11  C   -4.002449   0.000000   0.000000   0.000000   0.000008   0.000006
    12  C   -6.302806  -0.000000  -0.000000  -0.000000  -0.000002  -0.000001
    13  C   22.878515  -0.000000   0.000000  -0.000000  -0.000007  -0.000004
    14  H   -0.000000   0.510682  -0.026300  -0.026197  -0.003317  -0.003304
    15  H    0.000000  -0.026300   0.513745  -0.030660  -0.004645   0.003934
    16  H   -0.000000  -0.026197  -0.030660   0.513300   0.003963  -0.004608
    17  H   -0.000007  -0.003317  -0.004645   0.003963   0.487679  -0.026610
    18  H   -0.000004  -0.003304   0.003934  -0.004608  -0.026610   0.483418
    19  H   -0.000017  -0.000070  -0.000371   0.003029   0.004004  -0.005377
    20  H   -0.000331  -0.000071   0.003080  -0.000385  -0.005484   0.003992
    21  H   -0.001321  -0.000000  -0.000000  -0.000000   0.000562   0.000611
    22  H    0.015088  -0.000000  -0.000000  -0.000000   0.000002   0.000002
    23  H   -0.007742   0.000000  -0.000000  -0.000000  -0.000000  -0.000000
    24  H    0.038621   0.000000  -0.000000  -0.000000   0.000000   0.000000
    25  H    0.062795  -0.000000   0.000000   0.000000  -0.000000  -0.000000
    26  C   -2.412944   0.000000   0.000000   0.000000  -0.000000  -0.000000
    27  C    0.693147  -0.000000  -0.000000  -0.000000  -0.000000  -0.000000
    28  F   -0.128958  -0.000000  -0.000000  -0.000000  -0.000000  -0.000000
    29  F   -0.086720  -0.000000  -0.000000  -0.000000   0.000000  -0.000000
    30  F   -0.085346  -0.000000  -0.000000  -0.000000  -0.000000   0.000000
    31  F   -0.338845   0.000000   0.000000  -0.000000  -0.000000   0.000000
    32  F    0.218364   0.000000   0.000000  -0.000000  -0.000000   0.000000
    33  F    0.222303   0.000000   0.000000   0.000000   0.000000  -0.000000
    34  O   -0.001448  -0.000019  -0.000008  -0.000005  -0.001187  -0.001401
    35  O    0.008863  -0.000000   0.000000   0.000000  -0.000013  -0.000016
    36  C   -0.003434  -0.000038  -0.000004   0.000005   0.000099  -0.000230
    37  C   -0.007132   0.000017   0.000000  -0.000001   0.000170   0.000250
    38  C    0.000189   0.000000   0.000000  -0.000000  -0.000001   0.000028
    39  H   -0.000006  -0.000000   0.000000  -0.000000  -0.000000  -0.000000
    40  H   -0.000009  -0.000000   0.000000   0.000000   0.000000   0.000000
    41  H   -0.000004   0.000000   0.000000   0.000000  -0.000000  -0.000000
    42  H    0.000000   0.000000  -0.000000  -0.000000  -0.000000  -0.000000
    43  H   -0.000011  -0.000000   0.000000  -0.000000  -0.000000   0.000000
              19         20         21         22         23         24
     1  C   -0.009069  -0.007996   0.002058   0.000228   0.000014  -0.000001
     2  C   -0.056987  -0.056973   0.003123   0.000408  -0.000064   0.000016
     3  C    0.452536   0.454249  -0.063454   0.005543   0.003359  -0.000435
     4  N   -0.058650  -0.058256   0.164507   0.032971   0.000747   0.000612
     5  C   -0.023247  -0.025550   0.031479  -0.029839   0.026297  -0.013112
     6  O    0.000725   0.000679   0.003576   0.003341  -0.001196   0.000067
     7  N   -0.000127  -0.000208   0.032263   0.155921  -0.012756  -0.005170
     8  C   -0.000736   0.001497   0.006442   0.008737  -0.069272  -0.066281
     9  C   -0.000971  -0.004075  -0.003232   0.056998   0.422255  -0.000157
    10  C    0.000236   0.000504   0.005203  -0.068276  -0.029241   0.295456
    11  C    0.000004   0.000050   0.000459  -0.001437  -0.013757   0.060669
    12  C    0.000016  -0.000049   0.000476  -0.003022   0.003060  -0.021176
    13  C   -0.000017  -0.000331  -0.001321   0.015088  -0.007742   0.038621
    14  H   -0.000070  -0.000071  -0.000000  -0.000000   0.000000   0.000000
    15  H   -0.000371   0.003080  -0.000000  -0.000000  -0.000000  -0.000000
    16  H    0.003029  -0.000385  -0.000000  -0.000000  -0.000000  -0.000000
    17  H    0.004004  -0.005484   0.000562   0.000002  -0.000000   0.000000
    18  H   -0.005377   0.003992   0.000611   0.000002  -0.000000   0.000000
    19  H    0.529448  -0.042750   0.001593   0.000006  -0.000001  -0.000000
    20  H   -0.042750   0.530422   0.001602   0.000005  -0.000001   0.000000
    21  H    0.001593   0.001602   0.254090   0.004543  -0.000001   0.000006
    22  H    0.000006   0.000005   0.004543   0.258211  -0.000079   0.004829
    23  H   -0.000001  -0.000001  -0.000001  -0.000079   0.399774  -0.000101
    24  H   -0.000000   0.000000   0.000006   0.004829  -0.000101   0.434572
    25  H   -0.000000  -0.000000  -0.000000  -0.000006   0.000012  -0.003742
    26  C   -0.000010  -0.000010  -0.000124   0.001295  -0.038011   0.006303
    27  C    0.000000  -0.000001  -0.000002   0.000363   0.005012   0.007537
    28  F   -0.000000  -0.000000  -0.000000   0.000000   0.000031   0.000012
    29  F    0.000000  -0.000000  -0.000000   0.000000   0.000011   0.000010
    30  F   -0.000000   0.000000  -0.000000   0.000000   0.000011   0.000009
    31  F   -0.000000  -0.000000   0.000000  -0.000001   0.008280   0.000000
    32  F   -0.000000   0.000000  -0.000000   0.000000  -0.000123   0.000000
    33  F    0.000000  -0.000000  -0.000000   0.000000  -0.000117   0.000000
    34  O   -0.000061  -0.000080   0.057306   0.002306   0.000001   0.000012
    35  O   -0.000002  -0.000002  -0.001398   0.047655   0.000006  -0.002418
    36  C    0.000282   0.000298  -0.006587  -0.001157  -0.000063  -0.000266
    37  C    0.000023   0.000025   0.007424   0.005180  -0.000005   0.000871
    38  C   -0.000001   0.000001  -0.000435  -0.000294  -0.000000   0.000010
    39  H   -0.000000  -0.000000  -0.000004  -0.000010  -0.000000   0.000000
    40  H    0.000000   0.000000  -0.000006  -0.000004   0.000000  -0.000001
    41  H    0.000000   0.000000  -0.000002  -0.000002   0.000000  -0.000000
    42  H    0.000000   0.000000   0.000000   0.000000   0.000000   0.000000
    43  H   -0.000000  -0.000000   0.000000  -0.000008  -0.000000   0.000001
              25         26         27         28         29         30
     1  C    0.000000   0.000161  -0.000029   0.000000  -0.000000  -0.000000
     2  C   -0.000000  -0.001057   0.000103   0.000000  -0.000000  -0.000000
     3  C    0.000048   0.017100  -0.004817   0.000005  -0.000001  -0.000002
     4  N    0.000015   0.014594  -0.002213   0.000001   0.000000   0.000000
     5  C    0.006489   0.212735  -0.174644   0.000873  -0.000088  -0.000161
     6  O   -0.000002   0.008407   0.001052   0.000003  -0.000001  -0.000000
     7  N    0.000700   0.047290  -0.015256   0.000070   0.000005   0.000003
     8  C    0.049858  -4.247796   0.273953   0.021713   0.008051   0.007371
     9  C    0.008087   1.031919  -0.786040   0.062717  -0.009834  -0.010687
    10  C   -0.178939   0.698866  -2.608326   0.012265   0.107210   0.114887
    11  C    0.331529   0.009276   0.397795   0.078217  -0.064499  -0.068370
    12  C    0.080766  -1.221898  -2.776727   0.013909   0.150335   0.143589
    13  C    0.062795  -2.412944   0.693147  -0.128958  -0.086720  -0.085346
    14  H   -0.000000   0.000000  -0.000000  -0.000000  -0.000000  -0.000000
    15  H    0.000000   0.000000  -0.000000  -0.000000  -0.000000  -0.000000
    16  H    0.000000   0.000000  -0.000000  -0.000000  -0.000000  -0.000000
    17  H   -0.000000  -0.000000  -0.000000  -0.000000   0.000000  -0.000000
    18  H   -0.000000  -0.000000  -0.000000  -0.000000  -0.000000   0.000000
    19  H   -0.000000  -0.000010   0.000000  -0.000000   0.000000  -0.000000
    20  H   -0.000000  -0.000010  -0.000001  -0.000000  -0.000000   0.000000
    21  H   -0.000000  -0.000124  -0.000002  -0.000000  -0.000000  -0.000000
    22  H   -0.000006   0.001295   0.000363   0.000000   0.000000   0.000000
    23  H    0.000012  -0.038011   0.005012   0.000031   0.000011   0.000011
    24  H   -0.003742   0.006303   0.007537   0.000012   0.000010   0.000009
    25  H    0.469281   0.003921  -0.064007   0.000591  -0.000195  -0.000156
    26  C    0.003921  13.323701  -3.319345   0.198158   0.024772   0.025216
    27  C   -0.064007  -3.319345  12.851201  -0.140644  -0.002818  -0.000091
    28  F    0.000591   0.198158  -0.140644   9.298899  -0.034635  -0.034697
    29  F   -0.000195   0.024772  -0.002818  -0.034635   9.234084  -0.049345
    30  F   -0.000156   0.025216  -0.000091  -0.034697  -0.049345   9.233613
    31  F    0.000008   0.108629   0.015980   0.000399   0.000014   0.000014
    32  F   -0.000002  -0.042962   0.067610  -0.013127  -0.000915   0.000209
    33  F   -0.000000  -0.043668   0.075255  -0.012934   0.000215  -0.000903
    34  O    0.000000  -0.000122  -0.000023  -0.000000  -0.000000  -0.000000
    35  O   -0.000006   0.000875  -0.000849  -0.000000   0.000000   0.000000
    36  C   -0.000036  -0.001322  -0.000775   0.000000   0.000002   0.000002
    37  C   -0.000002  -0.000487   0.000160   0.000000   0.000000  -0.000000
    38  C   -0.000000   0.000026  -0.000033  -0.000000   0.000000  -0.000000
    39  H   -0.000000  -0.000000   0.000000   0.000000  -0.000000   0.000000
    40  H    0.000000  -0.000000   0.000000   0.000000  -0.000000   0.000000
    41  H   -0.000000  -0.000000   0.000000   0.000000  -0.000000   0.000000
    42  H   -0.000000   0.000000  -0.000000  -0.000000   0.000000  -0.000000
    43  H   -0.000000  -0.000000  -0.000001  -0.000000  -0.000000   0.000000
              31         32         33         34         35         36
     1  C   -0.000000   0.000000   0.000000   0.008312  -0.000421  -0.004019
     2  C    0.000002  -0.000001  -0.000001   0.020182  -0.002366  -0.005805
     3  C    0.000138   0.000005  -0.000002  -0.016639   0.004309   0.003760
     4  N   -0.000011   0.000005   0.000005  -0.038822   0.008629   0.000410
     5  C    0.002173   0.000799   0.000290   0.002410   0.015860  -0.006037
     6  O   -0.000632   0.000017   0.000004  -0.000523  -0.000092  -0.001160
     7  N   -0.001031   0.000214   0.000218   0.014829  -0.007997  -0.018890
     8  C    0.211294   0.041666   0.036831  -0.008780  -0.231730   0.096818
     9  C    0.089681   0.015018   0.007533  -0.001928  -0.013566  -0.000985
    10  C    0.005164  -0.012334  -0.012541  -0.003955   0.165541  -0.050415
    11  C    0.017061   0.002515   0.003132  -0.004700   0.076336  -0.044114
    12  C    0.012147  -0.152093  -0.150373   0.001088  -0.004557  -0.000170
    13  C   -0.338845   0.218364   0.222303  -0.001448   0.008863  -0.003434
    14  H    0.000000   0.000000   0.000000  -0.000019  -0.000000  -0.000038
    15  H    0.000000   0.000000   0.000000  -0.000008   0.000000  -0.000004
    16  H   -0.000000  -0.000000   0.000000  -0.000005   0.000000   0.000005
    17  H   -0.000000  -0.000000   0.000000  -0.001187  -0.000013   0.000099
    18  H    0.000000   0.000000  -0.000000  -0.001401  -0.000016  -0.000230
    19  H   -0.000000  -0.000000   0.000000  -0.000061  -0.000002   0.000282
    20  H   -0.000000   0.000000  -0.000000  -0.000080  -0.000002   0.000298
    21  H    0.000000  -0.000000  -0.000000   0.057306  -0.001398  -0.006587
    22  H   -0.000001   0.000000   0.000000   0.002306   0.047655  -0.001157
    23  H    0.008280  -0.000123  -0.000117   0.000001   0.000006  -0.000063
    24  H    0.000000   0.000000   0.000000   0.000012  -0.002418  -0.000266
    25  H    0.000008  -0.000002  -0.000000   0.000000  -0.000006  -0.000036
    26  C    0.108629  -0.042962  -0.043668  -0.000122   0.000875  -0.001322
    27  C    0.015980   0.067610   0.075255  -0.000023  -0.000849  -0.000775
    28  F    0.000399  -0.013127  -0.012934  -0.000000  -0.000000   0.000000
    29  F    0.000014  -0.000915   0.000215  -0.000000   0.000000   0.000002
    30  F    0.000014   0.000209  -0.000903  -0.000000   0.000000   0.000002
    31  F    9.280334  -0.037142  -0.036971  -0.000000  -0.000000   0.000002
    32  F   -0.037142   9.223745  -0.047589  -0.000000   0.000000   0.000001
    33  F   -0.036971  -0.047589   9.222973  -0.000000   0.000000   0.000001
    34  O   -0.000000  -0.000000  -0.000000   8.573744  -0.212167   0.404535
    35  O   -0.000000   0.000000   0.000000  -0.212167   8.662025   0.227370
    36  C    0.000002   0.000001   0.000001   0.404535   0.227370   5.863083
    37  C    0.000000   0.000000   0.000000  -0.066488  -0.164792  -0.685417
    38  C   -0.000000  -0.000000   0.000000  -0.025959   0.031649  -0.281924
    39  H   -0.000000  -0.000000  -0.000000  -0.004920   0.007879  -0.126913
    40  H   -0.000000  -0.000000  -0.000000   0.001937  -0.002251  -0.061937
    41  H   -0.000000  -0.000000  -0.000000   0.001753  -0.000033  -0.016771
    42  H    0.000000   0.000000   0.000000  -0.000247  -0.000144   0.045295
    43  H    0.000000  -0.000000  -0.000000   0.000371  -0.000933  -0.020777
              37         38         39         40         41         42
     1  C    0.003723  -0.000221   0.000012  -0.000005  -0.000002   0.000000
[...]
 000021,0.00000047,0.00000754,0.00000167,0.00000220,0.00001096,0.000005
 25,0.00000012,0.00000111,-0.00000067,0.00000145,0.00000042,0.00000108,
 -0.00000445,-0.00003128,-0.00017878,-0.00003602,-0.00002761,0.00030560
 ,-0.00004941,-0.00000752,-0.00000196,0.00000245,0.00000927,0.00003646,
 0.00002330,0.00000956,0.00000588,0.00000663,0.00000056,0.00004280,0.00
 001442,0.00001034,0.00002739,0.00001667,-0.00000864,-0.00001541,-0.000
 01100,-0.00000236,-0.00000516,-0.00000322,-0.00000040,-0.00001059,-0.0
 0000260,0.00000532,-0.00001428,0.00000036,-0.00000167,-0.00000968,-0.0
 0000165,-0.00000398,-0.00001575,-0.00001336,0.00022174,0.00159564,-0.0
 0090628,0.00048705,-0.00205278,-0.00068627,-0.00392766,-0.00113811,0.0
 0301092,-0.11836927,-0.02858589,0.11556586,-0.01554887,-0.00629545,0.0
 2483699,0.00937449,0.00444377,-0.01487922,0.13099614,0.00000421,0.0000
 0684,-0.00000416,0.00000909,-0.00002228,0.00002466,-0.00006244,0.00003
 914,0.00000275,0.00010935,0.00006241,0.00003226,-0.00034479,0.00011654
 ,0.00001999,0.00009991,-0.00014570,-0.00001634,-0.00002350,-0.00069759
 ,0.00015659,0.00027437,0.00001376,0.00000142,-0.00005682,-0.00004304,-
 0.00000321,-0.00008786,0.00008708,-0.00000475,0.00004700,-0.00000774,0
 .00000263,-0.00006892,-0.00002614,-0.00000425,0.00001193,-0.00002570,0
 .00000172,0.00000937,0.00000028,0.00000347,-0.00000203,0.00000255,-0.0
 0000353,0.00000122,-0.00000538,-0.00000015,-0.00000549,0.00000241,-0.0
 0000728,-0.00000501,-0.00000225,-0.00000271,0.00000953,-0.00001310,-0.
 00000442,0.00001482,-0.00000482,0.00000083,-0.00005361,0.00000534,-0.0
 0012312,-0.00001293,0.00108158,-0.00032871,0.00000206,0.00000375,0.000
 00167,0.00009155,0.00000673,0.00000163,-0.00000687,0.00000059,0.000001
 43,0.00002757,0.00007486,0.00000704,0.00011195,0.00000930,-0.00000118,
 -0.00002905,-0.00001867,-0.00000882,-0.00003469,-0.00000677,0.00001930
 ,-0.00003250,0.00001399,-0.00000623,-0.00000142,-0.00002125,0.00000122
 ,-0.00001840,-0.00002103,0.00000914,-0.00001094,-0.00002608,-0.0000180
 0,0.00139227,0.00022291,-0.00412854,-0.00170466,-0.00661972,-0.0033760
 4,-0.01779542,-0.00421441,0.03192383,-0.02877782,-0.05767905,0.0510482
 4,0.00899113,0.00291879,-0.01403143,0.00659611,0.00240792,-0.01036355,
 0.02961307,0.06299441,0.00000178,0.00000061,0.00000723,-0.00001045,0.0
 0001026,-0.00003332,0.00008546,-0.00003389,-0.00000060,-0.00007949,0.0
 0005790,0.00001177,0.00017823,-0.00009705,-0.00000934,-0.00005236,0.00
 009851,0.00000104,-0.00000785,0.00025767,0.00000315,-0.00009939,0.0000
 0431,-0.00000366,0.00001618,0.00001806,0.00000229,0.00002951,-0.000046
 98,0.00000386,-0.00002755,-0.00000013,0.00000354,0.00003500,0.00002062
 ,0.00000233,0.00000314,0.00002286,-0.00000290,-0.00001856,-0.00000168,
 -0.00000499,0.00000117,-0.00000521,0.00000417,-0.00000172,0.00000454,0
 .00000035,0.00001190,0.00000271,0.00000010,0.00001009,0.00000913,0.000
 01593,-0.00001380,0.00001126,0.00000638,-0.00001577,0.00000234,-0.0000
 0245,0.00001749,-0.00009550,0.00001039,-0.00001252,-0.00038569,-0.0000
 0262,0.00000206,-0.00000228,-0.00000166,-0.00003896,-0.00001654,-0.000
 00730,-0.00000414,-0.00000364,-0.00000202,-0.00002462,-0.00008474,-0.0
 0000811,-0.00008595,-0.00003156,-0.00000446,0.00002640,0.00002444,0.00
 001228,0.00002735,0.00000967,-0.00001371,0.00002236,0.00000017,0.00000
 352,-0.00000229,0.00002571,-0.00000214,0.00001611,0.00002232,-0.000007
 06,0.00001128,0.00002965,0.00001910,-0.00175855,0.00057978,0.00141780,
 -0.00072357,0.00098069,-0.00007323,0.00277475,-0.00273231,-0.00203411,
 0.11430935,0.04797088,-0.22768928,-0.00220965,-0.00089174,0.00290499,0
 .01361193,0.00636050,-0.02237635,-0.12591930,-0.05131096,0.24556912,0.
 00000357,0.00000110,-0.00000425,0.00000055,-0.00000709,0.00002042,-0.0
 0000225,-0.00000081,0.00000235,0.00003842,0.00009138,-0.00003340,-0.00
 009497,-0.00001701,0.00001732,0.00002468,0.00002561,-0.00000919,0.0000
 1110,-0.00002274,-0.00001970,0.00001967,0.00000458,0.00000616,-0.00000
 486,0.00000634,-0.00000257,-0.00001579,-0.00001055,-0.00000849,0.00000
 956,-0.00000288,-0.00000152,-0.00000101,0.00000187,0.00000046,0.000002
 08,0.00000493,-0.00000181,0.00000267,-0.00000128,0.00000262,-0.0000031
 3,0.00000659,-0.00000426,-0.00000075,-0.00000008,0.00000091,-0.0000011
 6,-0.00000469,0.00000504,0.00000396,-0.00000569,-0.00001527,0.00000062
 ,0.00000053,0.,0.00000044,0.00000816,-0.00000329,-0.00000876,-0.000127
 65,0.00002626,0.00000752,0.00003698,0.00001821,-0.00000108,0.00000062,
 0.00000217,0.00002084,-0.00000554,0.00001312,-0.00000802,-0.00000611,0
 .00000036,-0.00000579,-0.00001306,0.00000993,-0.00000838,-0.00001503,0
 .00001433,0.00000330,0.00000460,-0.00000034,0.00000555,0.00000368,-0.0
 0001009,-0.00000065,0.00000741,-0.00000374,-0.00000102,0.00000513,-0.0
 0000300,0.00000454,0.00000403,-0.00000488,0.00000119,0.00000317,-0.000
 00168,0.00068785,0.00039383,-0.00039051,0.00150194,0.00021893,-0.00073
 363,-0.00142483,-0.00192145,0.00056532,-0.01661593,-0.00594840,0.02660
 124,-0.11873454,-0.02988841,0.11668250,0.00086076,-0.00089925,-0.00024
 052,-0.00516130,0.00331790,-0.00094557,0.13163645,0.00000160,-0.000002
 99,0.00000014,-0.00000286,0.00000597,-0.00000029,0.00005284,-0.0000270
 2,0.,-0.00006184,0.00003600,0.00000534,0.00014926,-0.00011184,-0.00000
 130,-0.00004168,0.00010331,-0.00000261,0.00000756,0.00023965,-0.000010
 86,-0.00006968,0.00001949,-0.00000125,0.00000299,0.00001784,-0.0000025
 9,0.00001121,-0.00007996,0.00002599,-0.00004378,0.00001133,0.00000525,
 0.00005012,0.00002969,-0.00000224,0.00001180,0.00003139,-0.00000331,-0
 .00000837,-0.00000235,-0.00000023,-0.00000058,0.00000273,-0.00000128,-
 0.00000127,0.00000312,0.00000126,0.00000621,-0.00000146,0.00000419,0.0
 0000535,-0.00000166,-0.00000291,-0.00000995,0.00000942,0.00000476,-0.0
 0000809,0.00000756,-0.00000417,0.00002565,-0.00008887,0.00000120,-0.00
 003544,-0.00039156,0.00001612,0.00000242,0.00000005,-0.00000107,-0.000
 04951,-0.00007228,-0.00005075,-0.00000860,-0.00000587,-0.00000216,-0.0
 0004095,-0.00010287,0.00000112,-0.00013306,-0.00001815,0.00000754,0.00
 003642,0.00002358,0.00001060,0.00004272,0.00000928,-0.00002636,0.00003
 976,-0.00001086,0.00000518,0.00000028,0.00002951,-0.00000392,0.0000261
 7,0.00002811,-0.00001365,0.00001531,0.00003523,0.00001971,-0.00084508,
 0.00008099,0.00014934,-0.00085480,-0.00027461,0.00059482,0.00173650,0.
 00065787,-0.00100775,0.00767319,0.00320354,-0.01336608,-0.03108406,-0.
 05952778,0.04935441,-0.00075925,0.00046945,0.00024877,0.00305421,-0.00
 125019,0.00001868,0.03111460,0.06101633,-0.00000366,-0.00000406,0.0000
 0094,0.00000004,0.00001471,-0.00000750,0.00001871,-0.00000870,-0.00000
 243,-0.00011172,-0.00010490,0.00002181,0.00022786,-0.00002256,-0.00000
 840,-0.00006046,-0.00000380,0.00000702,-0.00016728,0.00003486,0.000014
 60,0.00017972,0.00007052,-0.00001158,-0.00005178,-0.00002279,0.0000048
 9,-0.00007661,-0.00002071,0.00002785,0.00002196,0.00000060,0.00000888,
 -0.00002670,0.00001694,-0.00000141,0.00003825,0.00002350,-0.00000403,-
 0.00000474,0.00000015,-0.00000109,0.00000204,-0.00000289,0.00000328,0.
 00000108,0.00000029,-0.00000125,0.00000011,0.00000140,-0.00000409,-0.0
 0000198,-0.00000016,0.00000784,-0.00000568,0.00000284,0.00000036,-0.00
 000319,-0.00000184,0.00000223,0.00002276,0.00011619,-0.00002169,-0.000
 00375,-0.00003937,-0.00002295,0.00001275,0.00000480,-0.00000250,0.0000
 2147,-0.00010756,-0.00004071,-0.00002563,-0.00001508,-0.00001011,-0.00
 000437,-0.00007514,-0.00001387,-0.00001231,-0.00005598,-0.00001674,0.0
 0001418,0.00002697,0.00001676,0.00000467,0.00001039,0.00000020,-0.0000
 0235,0.00002466,0.00000083,-0.00001000,0.00002603,-0.00000276,0.000004
 95,0.00001732,0.00000009,0.00000672,0.00002643,0.00001858,-0.00058975,
 -0.00063726,-0.00001140,-0.00185681,0.00022422,0.00059350,0.00196312,0
 .00176933,-0.00011129,-0.00147893,-0.00117114,0.00206538,0.11726722,0.
 04737114,-0.23781832,0.00034515,-0.00040057,0.00074085,-0.00058099,0.0
 0040233,0.00152779,-0.12789015,-0.05395956,0.25521399,0.00001058,0.000
 00691,-0.00000202,-0.00000988,-0.00001433,0.00000603,0.00005197,-0.000
 01360,-0.00000339,0.00015799,0.00038033,-0.00002830,-0.00034955,-0.000
 04464,-0.00000009,0.00009034,0.00009526,-0.00000464,0.00018620,-0.0000
 1533,0.00000163,-0.00018623,-0.00007114,0.00000340,0.00004906,0.000034
 28,-0.00000254,0.00006858,0.00001416,-0.00000084,-0.00000806,-0.000006
 60,0.00000059,0.00002945,-0.00000617,0.00000394,-0.00003370,-0.0000142
 6,0.00000134,-0.00000598,-0.00000271,-0.00000013,-0.00000536,0.0000060
 9,-0.00000332,-0.00000451,0.00000535,0.00000305,0.00001045,-0.00000604
 ,0.00001663,0.00001518,-0.00000672,-0.00001889,-0.00000664,0.00001163,
 0.00000554,-0.00000847,0.00001356,-0.00000617,-0.00006377,-0.00054604,
 0.00004666,-0.00001726,-0.00000549,0.00000092,-0.00001366,-0.00000578,
 0.00000022,-0.00001997,0.00006094,-0.00000511,0.00001583,0.00000558,-0
 .00000036,-0.00000178,0.00003096,-0.00000175,0.00000048,0.00001260,-0.
 00000172,-0.00000415,-0.00000598,-0.00000353,-0.00000097,-0.00000221,0
 .00000201,-0.00000027,-0.00000877,0.00000132,0.00000671,-0.00001128,0.
 00000285,-0.00000241,-0.00000683,0.00000114,-0.00000173,-0.00000973,-0
 .00000336,-0.00082024,0.00363979,-0.00027231,0.00230300,-0.00032567,0.
 00001461,-0.00721661,-0.00299701,0.00029307,0.00441846,0.03321908,-0.0
 0267724,-0.05057393,-0.02674857,0.00211325,0.00110496,-0.00081262,-0.0
 0036603,0.00111429,-0.00075608,0.00048124,-0.00218609,-0.01653980,-0.0
 0086192,0.05409255,-0.00001770,-0.00000343,0.00000276,0.00001183,0.000
 01485,-0.00000799,-0.00014475,0.00006759,0.00000208,-0.00006245,-0.000
 45862,0.00003542,0.00013812,0.00030982,-0.00001727,-0.00002640,-0.0003
 2503,0.00002004,-0.00025603,-0.00042134,0.00003025,0.00036319,0.000051
 78,-0.00000307,-0.00006953,-0.00008114,0.00000522,-0.00011001,0.000117
 06,-0.00000636,0.00008524,0.00000492,0.00000343,-0.00013029,-0.0000493
 2,-0.00000999,0.00002143,-0.00004903,0.00001067,0.00001935,0.00001013,
 0.00000039,0.00000914,-0.00001566,0.00000995,0.00000807,-0.00001437,-0
 .00000948,-0.00002039,0.00001023,-0.00003190,-0.00002920,0.00001384,0.
 00003451,0.00002232,-0.00003047,-0.00001786,0.00002152,-0.00003212,0.0
 0001759,-0.00001574,0.00075539,-0.00006297,0.00011104,0.00075228,-0.00
 005681,0.00001264,0.00000822,-0.00000080,0.00009711,0.00006609,-0.0000
 0889,0.00000622,0.00000886,-0.00000053,0.00009341,0.00018995,-0.000003
 49,0.00028000,0.00004581,-0.00001665,-0.00007469,-0.00005042,-0.000020
 78,-0.00009002,-0.00002142,0.00005480,-0.00008072,0.00002343,-0.000010
 01,-0.00000803,-0.00005277,0.00000599,-0.00005464,-0.00005416,0.000029
 59,-0.00003159,-0.00006560,-0.00003737,0.00186881,-0.00261602,0.000182
 18,0.00083510,-0.00119668,0.00014358,0.00088597,0.00258285,-0.00015068
 ,-0.00385829,-0.01297076,0.00097547,-0.02655762,-0.30621081,0.02038151
 ,0.00022147,0.00042568,0.00053779,0.00018778,0.00028164,-0.00060201,-0
 .00073599,-0.00598177,0.00024501,0.02798870,0.33518534,0.00000144,0.00
 000041,-0.00000047,-0.00000102,-0.00000116,0.00000442,0.00001120,-0.00
 000489,0.00000001,0.00000450,0.00003452,0.00000122,-0.00000983,-0.0000
 2460,-0.00000280,0.00000174,0.00002544,-0.00000005,0.00002068,0.000035
 95,0.00001347,-0.00002925,-0.00000439,-0.00000507,0.00000581,0.0000065
 2,-0.00000070,0.00000862,-0.00000763,0.00002117,-0.00000689,-0.0000000
 7,0.00000671,0.00001046,0.00000363,-0.00000095,-0.00000193,0.00000376,
 0.00000013,-0.00000166,-0.00000078,0.00000090,-0.00000057,0.00000190,-
 0.00000125,-0.00000071,0.00000021,0.00000023,0.00000222,-0.00000029,0.
 00000111,0.00000185,-0.00000118,-0.00000314,-0.00000201,0.00000196,0.0
 0000114,-0.00000144,0.00000262,-0.00000161,0.00000169,-0.00005726,0.00
 000152,-0.00000942,-0.00006334,-0.00001463,-0.00000101,-0.00000070,-0.
 00000048,-0.00000748,-0.00000829,-0.00005005,-0.00000035,-0.00000093,-
 0.00000461,-0.00000722,-0.00001468,-0.00000088,-0.00002190,-0.00000308
 ,-0.00000243,0.00000581,0.00000404,0.00000219,0.00000675,0.00000165,-0
 .00000280,0.00000655,-0.00000244,0.00000191,0.00000073,0.00000405,-0.0
 0000027,0.00000405,0.00000418,-0.00000202,0.00000250,0.00000515,0.0000
 0336,-0.00014827,0.00018437,0.00001136,-0.00008685,0.00016553,0.000730
 53,-0.00000305,-0.00012903,0.00055932,0.00027821,0.00071698,-0.0011440
 7,0.00209811,0.02039295,-0.05223463,0.00012974,0.00031539,-0.00009321,
 -0.00017413,-0.00036253,0.00004727,0.00127489,0.02800453,-0.00069569,-
 0.00225417,-0.02293515,0.04933604,0.00000389,0.00000118,0.00000194,0.0
 0000100,-0.00000784,-0.00001220,-0.00000345,-0.00000232,-0.00000718,0.
 00004228,0.00009823,0.00002014,-0.00010194,-0.00002080,-0.00001599,0.0
 0002623,0.00002847,0.00000682,0.00001645,-0.00001795,0.00002340,0.0000
 1446,0.00000251,-0.00000744,-0.00000331,0.00000775,0.00000140,-0.00001
 436,-0.00000928,0.00001005,0.00000933,-0.00000290,0.00000426,-0.000000
 04,0.00000153,-0.00000228,0.00000090,0.00000479,0.00000142,0.00000365,
 -0.00000140,-0.00000159,-0.00000148,0.00000157,-0.00000158,-0.00000339
 ,0.00000640,0.00000420,0.00000222,-0.00000510,0.00001713,0.00000015,-0
 .00000715,-0.00001008,0.00000074,0.00000854,0.00000369,0.00000034,0.00
 000246,-0.00000025,-0.00000905,-0.00013189,-0.00000557,0.00000636,0.00
 002935,-0.00002384,-0.00000147,0.00000024,-0.00000228,0.00002066,-0.00
 000534,-0.00001458,-0.00000766,-0.00000597,-0.00000013,-0.00000640,-0.
 00001318,-0.00001205,-0.00000797,-0.00001530,-0.00000703,0.00000476,0.
 00000794,0.00000571,0.00000229,0.00000271,0.00000039,0.00000068,0.0000
 0536,0.00000094,0.00000121,0.00000330,0.00000189,0.00000118,0.00000282
 ,0.00000172,0.00000294,0.00000638,0.00000857,0.00068430,0.00046143,0.0
 0030782,0.00153225,0.00033785,0.00065497,-0.00144328,-0.00201591,-0.00
 020961,-0.01692120,-0.01000856,-0.02510403,-0.12165064,-0.04866483,-0.
 11174464,-0.00514524,0.00342904,0.00048970,0.00085863,-0.00084320,0.00
 037929,0.00943307,0.00653247,0.01367797,-0.00218484,-0.00091437,-0.001
 10841,0.13483573,0.00000199,-0.00000246,-0.00000138,-0.00000273,0.0000
 0352,0.00000249,0.00004924,-0.00002559,0.00000092,-0.00004474,0.000049
 83,-0.00001121,0.00011353,-0.00010457,0.00001340,-0.00003187,0.0001007
 1,-0.00000928,0.00003128,0.00022831,-0.00001855,-0.00009314,0.00000888
 ,-0.00000134,0.00001045,0.00002123,0.00000028,0.00002221,-0.00007841,-
 0.00001231,-0.00004705,0.00001088,-0.00000619,0.00005356,0.00002713,0.
 00000673,0.00000626,0.00002686,-0.00000752,-0.00000742,-0.00000225,-0.
 00000039,-0.00000143,0.00000302,-0.00000143,-0.00000067,0.00000293,0.0
 0000173,0.00000388,-0.00000087,0.00000310,0.00000736,-0.00000201,-0.00
 000427,-0.00000852,0.00000777,0.00000463,-0.00000779,0.00000833,-0.000
 00446,0.00002172,-0.00010334,0.00001237,-0.00003417,-0.00037545,0.0000
 3292,0.00000052,-0.00000045,0.00000083,-0.00005189,-0.00004746,0.00005
 188,-0.00000490,-0.00000348,0.00000042,-0.00003950,-0.00009032,0.00000
 062,-0.00012977,-0.00000828,0.00000181,0.00003476,0.00002010,0.0000100
 0,0.00003982,0.00000727,-0.00002180,0.00004086,-0.00001576,0.00000731,
 0.00000175,0.00002507,-0.00000286,0.00002425,0.00002483,-0.00001246,0.
 00001432,0.00003105,0.00001783,-0.00072738,0.00014757,-0.00016113,-0.0
 0057874,-0.00033061,-0.00043473,0.00142433,0.00053055,0.00088171,0.008
 00307,0.00542100,0.01276571,-0.04994426,-0.07887710,-0.07379530,0.0031
 1746,-0.00124661,0.00038779,-0.00080753,0.00049811,-0.00020136,0.00437
 173,0.00188066,0.00622340,-0.01654181,-0.01022481,-0.02629331,0.051710
 97,0.08245420,0.00000355,0.00000455,0.00000074,0.00000052,-0.00001621,
 -0.00000509,-0.00002703,0.00001218,-0.00000567,0.00012176,0.00010084,0
 .00001189,-0.00025152,0.00003772,-0.00001594,0.00006690,-0.00001086,0.
 00000869,0.00016840,-0.00006720,0.00002217,-0.00017144,-0.00007512,-0.
 00000387,0.00005219,0.00002095,0.00000090,0.00007528,0.00003737,0.0000
 2619,-0.00001616,-0.00000146,0.00000903,0.00002007,-0.00002200,0.00000
 356,-0.00004079,-0.00002886,0.00000556,0.00000634,0.00000025,-0.000000
 46,-0.00000117,-0.00000003,-0.00000151,-0.00000201,0.00000205,0.000002
 80,0.00000050,0.00000041,0.00000772,-0.00000058,-0.00000130,-0.0000046
 9,0.00000605,-0.00000015,0.00000125,0.00000530,-0.00000267,0.00000052,
 -0.00002633,-0.00010239,-0.00000454,0.00000797,0.00009192,-0.00003276,
 -0.00001323,-0.00000520,-0.00000214,-0.00001378,0.00011184,-0.00006450
 ,0.00002738,0.00001494,-0.00001140,0.00001117,0.00008996,-0.00001721,0
 .00003253,0.00006135,-0.00003674,-0.00001662,-0.00002460,-0.00000557,-
 0.00001875,-0.00001344,0.00002881,0.00000073,-0.00002958,0.00001260,0.
 00001233,-0.00003250,0.00000958,-0.00001444,-0.00002317,0.00001177,-0.
 00000648,-0.00002728,-0.00000714,0.00069844,0.00060391,-0.00011164,0.0
 0195063,-0.00005954,0.00066870,-0.00218252,-0.00183321,0.00008361,0.00
 047290,0.00076396,0.00016105,-0.11214134,-0.07186351,-0.21537878,0.000
 17800,-0.00000228,0.00151840,-0.00022478,0.00044776,0.00070495,-0.0149
 3572,-0.01001457,-0.02146787,0.00351836,0.00128183,0.00351778,0.122667
 35,0.08057336,0.23035927\\0.00000036,-0.00000067,-0.00000142,-0.000000
 95,-0.00000117,-0.00000106,-0.00000341,0.00000013,0.00000007,0.0000081
 7,-0.00000555,-0.00000316,-0.00001110,0.00000967,-0.00000389,0.0000000
 4,-0.00000674,0.00000077,0.00001074,-0.00000792,0.00000917,-0.00000193
 ,-0.00000354,-0.00000406,0.00000374,0.00000093,-0.00000077,-0.00000063
 ,-0.00000085,0.00000009,0.00000281,0.00000228,-0.00000044,0.00000179,0
 .00000395,0.00000591,-0.00000844,0.00000013,0.00000069,-0.00000007,-0.
 00000097,-0.00000113,-0.00000025,-0.00000114,-0.00000131,-0.00000037,-
 0.00000061,-0.00000163,0.00000070,-0.00000086,0.00000017,0.00000013,-0
 .00000073,-0.00000149,-0.00000018,-0.00000062,-0.00000110,0.00000027,-
 0.00000085,-0.00000044,0.00000209,0.00000403,-0.00000445,0.00000082,0.
 00000713,-0.00000697,-0.00000101,-0.00000067,-0.00000029,-0.00000016,0
 .00000006,0.00000027,0.00000150,-0.00000002,0.00000146,0.00000417,-0.0
 0000108,-0.00001099,0.00000076,0.00000194,0.00000077,-0.00000486,0.000
 00226,0.00000491,0.00000043,-0.00000066,-0.00000416,-0.00000377,-0.000
 00181,-0.00000025,0.00000357,-0.00000011,0.00000134,-0.00000663,0.0000
 0146,0.00000365,0.00000210,0.00000232,0.00000244,-0.00000889,-0.000007
 12,0.00000927,-0.00000736,0.00000008,0.00001417,0.00001371,0.00001246,
 -0.00000624,-0.00000319,-0.00000487,-0.00000536,0.00000386,-0.00000159
 ,0.00000257,0.00000003,0.00000033,0.00000163,0.00000034,-0.00000039,-0
 .00000026,0.00000146,-0.00000073,0.00000165,-0.00000018,-0.00000007,0.
 00000053,-0.00000016,0.00000216,-0.00000071\\\@


 The earth never tires,
 The earth is rude, silent, incomprehensible at first,
 Nature is rude and incomprehensible at first,
 Be not discouraged, keep on,
 There are divine things well envelop'd,
 I swear to you there are divine things more beautiful than words can tell.
                                 -- Walt Whitman
 Job cpu time:       0 days  8 hours 59 minutes 58.0 seconds.
 File lengths (MBytes):  RWF=   1278 Int=      0 D2E=      0 Chk=     23 Scr=      1
 Normal termination of Gaussian 09 at Tue Feb 19 13:43:56 2019.
WARNING: pbs_rusage is deprecated and values produced may not be accurate


=============================================================================
                                     Resource usage:
                                       CPU time:              34:21:05
   JobId:    5874137.r-man2            Elapsed time:          04:19:18
   Project:             q95            Requested time:        52:00:00
   Service Units:     34.57 
                                       Max physical memory:     1581MB
                                       Max virtual memory:      3285MB
                                       Requested memory:           0MB

                                       Number of cpus:               8

                                       Max jobfs disk use:       1.2GB
                                       Requested jobfs:         24.0GB
=============================================================================

