 Entering Gaussian System, Link 0=/apps/gaussian/g09e01/g09/g09
 AtFile(1): /home/507/hio507/Basis/6-31pGd.gbs
 Initial command:
 /apps/gaussian/g09e01/g09/l1.exe "/jobfs/local/5375073.r-man2/Gau-9966.inp" -scrdir="/jobfs/local/5375073.r-man2/"
 Entering Link 1 = /apps/gaussian/g09e01/g09/l1.exe PID=     10000.
  
 Copyright (c) 1988,1990,1992,1993,1995,1998,2003,2009,2015,
            Gaussian, Inc.  All Rights Reserved.
  
 This is part of the Gaussian(R) 09 program.  It is based on
 the Gaussian(R) 03 system (copyright 2003, Gaussian, Inc.),
 the Gaussian(R) 98 system (copyright 1998, Gaussian, Inc.),
 the Gaussian(R) 94 system (copyright 1995, Gaussian, Inc.),
 the Gaussian 92(TM) system (copyright 1992, Gaussian, Inc.),
 the Gaussian 90(TM) system (copyright 1990, Gaussian, Inc.),
 the Gaussian 88(TM) system (copyright 1988, Gaussian, Inc.),
 the Gaussian 86(TM) system (copyright 1986, Carnegie Mellon
 University), and the Gaussian 82(TM) system (copyright 1983,
 Carnegie Mellon University). Gaussian is a federally registered
 trademark of Gaussian, Inc.
  
 This software contains proprietary and confidential information,
 including trade secrets, belonging to Gaussian, Inc.
  
 This software is provided under written license and may be
 used, copied, transmitted, or stored only in accord with that
 written license.
  
 The following legend is applicable only to US Government
 contracts under FAR:
  
                    RESTRICTED RIGHTS LEGEND
  
 Use, reproduction and disclosure by the US Government is
 subject to restrictions as set forth in subparagraphs (a)
 and (c) of the Commercial Computer Software - Restricted
 Rights clause in FAR 52.227-19.
  
 Gaussian, Inc.
 340 Quinnipiac St., Bldg. 40, Wallingford CT 06492
  
  
 ---------------------------------------------------------------
 Warning -- This program may not be used in any manner that
 competes with the business of Gaussian, Inc. or will provide
 assistance to any competitor of Gaussian, Inc.  The licensee
 of this program is prohibited from giving any competitor of
 Gaussian, Inc. access to this program.  By using this program,
 the user acknowledges that Gaussian, Inc. is engaged in the
 business of creating and licensing software in the field of
 computational chemistry and represents and warrants to the
 licensee that it is not a competitor of Gaussian, Inc. and that
 it will not use this program in any manner prohibited above.
 ---------------------------------------------------------------
  

 Cite this work as:
 Gaussian 09, Revision E.01,
 M. J. Frisch, G. W. Trucks, H. B. Schlegel, G. E. Scuseria, 
 M. A. Robb, J. R. Cheeseman, G. Scalmani, V. Barone, B. Mennucci, 
 G. A. Petersson, H. Nakatsuji, M. Caricato, X. Li, H. P. Hratchian, 
 A. F. Izmaylov, J. Bloino, G. Zheng, J. L. Sonnenberg, M. Hada, 
 M. Ehara, K. Toyota, R. Fukuda, J. Hasegawa, M. Ishida, T. Nakajima, 
 Y. Honda, O. Kitao, H. Nakai, T. Vreven, J. A. Montgomery, Jr., 
 J. E. Peralta, F. Ogliaro, M. Bearpark, J. J. Heyd, E. Brothers, 
 K. N. Kudin, V. N. Staroverov, T. Keith, R. Kobayashi, J. Normand, 
 K. Raghavachari, A. Rendell, J. C. Burant, S. S. Iyengar, J. Tomasi, 
 M. Cossi, N. Rega, J. M. Millam, M. Klene, J. E. Knox, J. B. Cross, 
 V. Bakken, C. Adamo, J. Jaramillo, R. Gomperts, R. E. Stratmann, 
 O. Yazyev, A. J. Austin, R. Cammi, C. Pomelli, J. W. Ochterski, 
 R. L. Martin, K. Morokuma, V. G. Zakrzewski, G. A. Voth, 
 P. Salvador, J. J. Dannenberg, S. Dapprich, A. D. Daniels, 
 O. Farkas, J. B. Foresman, J. V. Ortiz, J. Cioslowski, 
 and D. J. Fox, Gaussian, Inc., Wallingford CT, 2013.
 
 ******************************************
 Gaussian 09:  ES64L-G09RevE.01 30-Nov-2015
                 4-Feb-2019 
 ******************************************
 %chk=2Nitro4Fluro.M062X_6-31pGd_opt_water.chk
 %mem=196608000
 %nproc=4
 Will use up to    4 processors via shared memory.
 ----------------------------------------------------------------------
 # M062X/Gen 6D SCF=Tight INT(grid=ultrafine) OPT IOP(2/17=4) SCRF=(SMD
 ,Solvent=h2o) maxdisk=2147483648
 ----------------------------------------------------------------------
 1/14=-1,18=20,19=15,26=4,38=1/1,3;
 2/9=110,12=2,17=4,18=5,40=1/2;
 3/5=7,8=2,11=2,16=1,25=1,30=1,70=32201,71=1,72=1,74=-55,75=-5/1,2,3;
 4//1;
 5/5=2,32=2,38=5,53=1/2;
 6/7=2,8=2,9=2,10=2,28=1/1;
 7//1,2,3,16;
 1/14=-1,18=20,19=15,26=4/3(2);
 2/9=110,17=4/2;
 99//99;
 2/9=110,17=4/2;
 3/5=7,6=1,8=2,11=2,16=1,25=1,30=1,70=32205,71=1,72=1,74=-55,75=-5,82=7/1,2,3;
 4/5=5,16=3,69=1/1;
 5/5=2,32=2,38=5,53=1/2;
 7//1,2,3,16;
 1/14=-1,18=20,19=15,26=4/3(-5);
 2/9=110,17=4/2;
 6/7=2,8=2,9=2,10=2,19=2,28=1/1;
 99/9=1/99;
 ------------------------------------
 2Nitro4Fluro.M062X_6-31pGd_opt_water
 ------------------------------------
 Symbolic Z-matrix:
 Charge =  0 Multiplicity = 1
 C                    -1.03527   2.03628   0.43353 
 C                     0.31895   1.44427   0.04993 
 C                     1.43027   2.48095   0.15383 
 N                     2.71061   1.89527  -0.2172 
 C                     3.87086   2.56147   0.05265 
 O                     3.90428   3.60073   0.68929 
 N                     4.99728   1.90686  -0.45579 
 C                     6.31232   2.31818  -0.39108 
 C                     7.36445   1.54067  -0.95123 
 C                     6.67779   3.53057   0.22496 
 C                     8.00367   3.90493   0.25893 
 C                     9.04122   3.15153  -0.2846 
 C                     8.69783   1.96183  -0.89088 
 H                    -1.82844   1.28767   0.35678 
 H                    -1.2988    2.87352  -0.2214 
 H                     0.27234   1.05747  -0.9774 
 H                     0.56012   0.59564   0.70111 
 H                     1.52004   2.84942   1.17972 
 H                     1.2069    3.34867  -0.48255 
 H                     2.70676   1.16276  -0.91533 
 H                     5.92407   4.16237   0.67268 
 F                     8.3108    5.06521   0.85379 
 N                     7.14008   0.26654  -1.62208 
 H                     10.06564   3.49834  -0.22474 
 O                     8.09903  -0.32076  -2.08437 
 O                     5.99174  -0.17567  -1.70091 
 H                    -1.02193   2.40765   1.46358 
 H                     4.86685   1.00357  -0.89774 
 H                     9.45379   1.32643  -1.33473 
 

 GradGradGradGradGradGradGradGradGradGradGradGradGradGradGradGradGradGrad
 Berny optimization.
 Initialization pass.
                           ----------------------------
                           !    Initial Parameters    !
                           ! (Angstroms and Degrees)  !
 --------------------------                            --------------------------
 ! Name  Definition              Value          Derivative Info.                !
 --------------------------------------------------------------------------------
 ! R1    R(1,2)                  1.5269         estimate D2E/DX2                !
 ! R2    R(1,14)                 1.0934         estimate D2E/DX2                !
 ! R3    R(1,15)                 1.0952         estimate D2E/DX2                !
 ! R4    R(1,27)                 1.095          estimate D2E/DX2                !
 ! R5    R(2,3)                  1.5233         estimate D2E/DX2                !
 ! R6    R(2,16)                 1.0987         estimate D2E/DX2                !
 ! R7    R(2,17)                 1.0965         estimate D2E/DX2                !
 ! R8    R(3,4)                  1.456          estimate D2E/DX2                !
 ! R9    R(3,18)                 1.0937         estimate D2E/DX2                !
 ! R10   R(3,19)                 1.099          estimate D2E/DX2                !
 ! R11   R(4,5)                  1.3649         estimate D2E/DX2                !
 ! R12   R(4,20)                 1.0119         estimate D2E/DX2                !
 ! R13   R(5,6)                  1.2192         estimate D2E/DX2                !
 ! R14   R(5,7)                  1.3985         estimate D2E/DX2                !
 ! R15   R(7,8)                  1.3794         estimate D2E/DX2                !
 ! R16   R(7,28)                 1.014          estimate D2E/DX2                !
 ! R17   R(8,9)                  1.4231         estimate D2E/DX2                !
 ! R18   R(8,10)                 1.4082         estimate D2E/DX2                !
 ! R19   R(9,13)                 1.3996         estimate D2E/DX2                !
 ! R20   R(9,23)                 1.4573         estimate D2E/DX2                !
 ! R21   R(10,11)                1.3781         estimate D2E/DX2                !
 ! R22   R(10,21)                1.0806         estimate D2E/DX2                !
 ! R23   R(11,12)                1.3927         estimate D2E/DX2                !
 ! R24   R(11,22)                1.3396         estimate D2E/DX2                !
 ! R25   R(12,13)                1.3787         estimate D2E/DX2                !
 ! R26   R(12,24)                1.0832         estimate D2E/DX2                !
 ! R27   R(13,29)                1.0827         estimate D2E/DX2                !
 ! R28   R(23,25)                1.2158         estimate D2E/DX2                !
 ! R29   R(23,26)                1.2331         estimate D2E/DX2                !
 ! A1    A(2,1,14)             111.118          estimate D2E/DX2                !
 ! A2    A(2,1,15)             111.0747         estimate D2E/DX2                !
 ! A3    A(2,1,27)             110.9161         estimate D2E/DX2                !
 ! A4    A(14,1,15)            107.8723         estimate D2E/DX2                !
 ! A5    A(14,1,27)            107.8833         estimate D2E/DX2                !
 ! A6    A(15,1,27)            107.8298         estimate D2E/DX2                !
 ! A7    A(1,2,3)              111.4707         estimate D2E/DX2                !
 ! A8    A(1,2,16)             109.4973         estimate D2E/DX2                !
 ! A9    A(1,2,17)             110.2385         estimate D2E/DX2                !
 ! A10   A(3,2,16)             109.5301         estimate D2E/DX2                !
 ! A11   A(3,2,17)             109.0097         estimate D2E/DX2                !
 ! A12   A(16,2,17)            106.9867         estimate D2E/DX2                !
 ! A13   A(2,3,4)              110.5109         estimate D2E/DX2                !
 ! A14   A(2,3,18)             110.6778         estimate D2E/DX2                !
 ! A15   A(2,3,19)             110.4595         estimate D2E/DX2                !
 ! A16   A(4,3,18)             107.5995         estimate D2E/DX2                !
 ! A17   A(4,3,19)             110.4118         estimate D2E/DX2                !
 ! A18   A(18,3,19)            107.0869         estimate D2E/DX2                !
 ! A19   A(3,4,5)              120.0529         estimate D2E/DX2                !
 ! A20   A(3,4,20)             117.6227         estimate D2E/DX2                !
 ! A21   A(5,4,20)             119.5364         estimate D2E/DX2                !
 ! A22   A(4,5,6)              122.8616         estimate D2E/DX2                !
 ! A23   A(4,5,7)              112.6029         estimate D2E/DX2                !
 ! A24   A(6,5,7)              124.5237         estimate D2E/DX2                !
 ! A25   A(5,7,8)              127.6792         estimate D2E/DX2                !
 ! A26   A(5,7,28)             118.1518         estimate D2E/DX2                !
 ! A27   A(8,7,28)             114.1225         estimate D2E/DX2                !
 ! A28   A(7,8,9)              121.5641         estimate D2E/DX2                !
 ! A29   A(7,8,10)             121.6467         estimate D2E/DX2                !
 ! A30   A(9,8,10)             116.7881         estimate D2E/DX2                !
 ! A31   A(8,9,13)             121.5308         estimate D2E/DX2                !
 ! A32   A(8,9,23)             123.0261         estimate D2E/DX2                !
 ! A33   A(13,9,23)            115.443          estimate D2E/DX2                !
 ! A34   A(8,10,11)            119.6271         estimate D2E/DX2                !
 ! A35   A(8,10,21)            120.239          estimate D2E/DX2                !
 ! A36   A(11,10,21)           120.1333         estimate D2E/DX2                !
 ! A37   A(10,11,12)           124.0681         estimate D2E/DX2                !
 ! A38   A(10,11,22)           117.8277         estimate D2E/DX2                !
 ! A39   A(12,11,22)           118.1042         estimate D2E/DX2                !
 ! A40   A(11,12,13)           116.9284         estimate D2E/DX2                !
 ! A41   A(11,12,24)           120.6506         estimate D2E/DX2                !
 ! A42   A(13,12,24)           122.421          estimate D2E/DX2                !
 ! A43   A(9,13,12)            121.0574         estimate D2E/DX2                !
 ! A44   A(9,13,29)            118.0938         estimate D2E/DX2                !
 ! A45   A(12,13,29)           120.8488         estimate D2E/DX2                !
 ! A46   A(9,23,25)            118.4194         estimate D2E/DX2                !
 ! A47   A(9,23,26)            119.1016         estimate D2E/DX2                !
 ! A48   A(25,23,26)           122.479          estimate D2E/DX2                !
 ! D1    D(14,1,2,3)           179.9892         estimate D2E/DX2                !
 ! D2    D(14,1,2,16)           58.634          estimate D2E/DX2                !
 ! D3    D(14,1,2,17)          -58.8084         estimate D2E/DX2                !
 ! D4    D(15,1,2,3)            59.8958         estimate D2E/DX2                !
 ! D5    D(15,1,2,16)          -61.4595         estimate D2E/DX2                !
 ! D6    D(15,1,2,17)         -178.9018         estimate D2E/DX2                !
 ! D7    D(27,1,2,3)           -60.0094         estimate D2E/DX2                !
 ! D8    D(27,1,2,16)          178.6353         estimate D2E/DX2                !
 ! D9    D(27,1,2,17)           61.193          estimate D2E/DX2                !
 ! D10   D(1,2,3,4)           -179.9512         estimate D2E/DX2                !
 ! D11   D(1,2,3,18)            60.9543         estimate D2E/DX2                !
 ! D12   D(1,2,3,19)           -57.4707         estimate D2E/DX2                !
 ! D13   D(16,2,3,4)           -58.6151         estimate D2E/DX2                !
 ! D14   D(16,2,3,18)         -177.7096         estimate D2E/DX2                !
 ! D15   D(16,2,3,19)           63.8654         estimate D2E/DX2                !
 ! D16   D(17,2,3,4)            58.133          estimate D2E/DX2                !
 ! D17   D(17,2,3,18)          -60.9615         estimate D2E/DX2                !
 ! D18   D(17,2,3,19)         -179.3865         estimate D2E/DX2                !
 ! D19   D(2,3,4,5)           -167.1412         estimate D2E/DX2                !
 ! D20   D(2,3,4,20)            31.848          estimate D2E/DX2                !
 ! D21   D(18,3,4,5)           -46.1975         estimate D2E/DX2                !
 ! D22   D(18,3,4,20)          152.7917         estimate D2E/DX2                !
 ! D23   D(19,3,4,5)            70.3504         estimate D2E/DX2                !
 ! D24   D(19,3,4,20)          -90.6604         estimate D2E/DX2                !
 ! D25   D(3,4,5,6)              5.6097         estimate D2E/DX2                !
 ! D26   D(3,4,5,7)           -175.589          estimate D2E/DX2                !
 ! D27   D(20,4,5,6)           166.258          estimate D2E/DX2                !
 ! D28   D(20,4,5,7)           -14.9406         estimate D2E/DX2                !
 ! D29   D(4,5,7,8)            178.3073         estimate D2E/DX2                !
 ! D30   D(4,5,7,28)            -4.3305         estimate D2E/DX2                !
 ! D31   D(6,5,7,8)             -2.9148         estimate D2E/DX2                !
 ! D32   D(6,5,7,28)           174.4475         estimate D2E/DX2                !
 ! D33   D(5,7,8,9)            179.6825         estimate D2E/DX2                !
 ! D34   D(5,7,8,10)            -0.6985         estimate D2E/DX2                !
 ! D35   D(28,7,8,9)             2.2307         estimate D2E/DX2                !
 ! D36   D(28,7,8,10)         -178.1503         estimate D2E/DX2                !
 ! D37   D(7,8,9,13)           179.6855         estimate D2E/DX2                !
 ! D38   D(7,8,9,23)            -0.243          estimate D2E/DX2                !
 ! D39   D(10,8,9,13)            0.0488         estimate D2E/DX2                !
 ! D40   D(10,8,9,23)         -179.8797         estimate D2E/DX2                !
 ! D41   D(7,8,10,11)         -179.6122         estimate D2E/DX2                !
 ! D42   D(7,8,10,21)            0.66           estimate D2E/DX2                !
 ! D43   D(9,8,10,11)            0.0242         estimate D2E/DX2                !
 ! D44   D(9,8,10,21)         -179.7037         estimate D2E/DX2                !
 ! D45   D(8,9,13,12)           -0.0583         estimate D2E/DX2                !
 ! D46   D(8,9,13,29)          179.9655         estimate D2E/DX2                !
 ! D47   D(23,9,13,12)         179.8754         estimate D2E/DX2                !
 ! D48   D(23,9,13,29)          -0.1008         estimate D2E/DX2                !
 ! D49   D(8,9,23,25)          179.1432         estimate D2E/DX2                !
 ! D50   D(8,9,23,26)           -0.8451         estimate D2E/DX2                !
 ! D51   D(13,9,23,25)          -0.7894         estimate D2E/DX2                !
 ! D52   D(13,9,23,26)         179.2223         estimate D2E/DX2                !
 ! D53   D(8,10,11,12)          -0.0938         estimate D2E/DX2                !
 ! D54   D(8,10,11,22)         179.9918         estimate D2E/DX2                !
 ! D55   D(21,10,11,12)        179.6343         estimate D2E/DX2                !
 ! D56   D(21,10,11,22)         -0.2801         estimate D2E/DX2                !
 ! D57   D(10,11,12,13)          0.0844         estimate D2E/DX2                !
 ! D58   D(10,11,12,24)       -179.8797         estimate D2E/DX2                !
 ! D59   D(22,11,12,13)        179.9985         estimate D2E/DX2                !
 ! D60   D(22,11,12,24)          0.0344         estimate D2E/DX2                !
 ! D61   D(11,12,13,9)          -0.007          estimate D2E/DX2                !
 ! D62   D(11,12,13,29)        179.9685         estimate D2E/DX2                !
 ! D63   D(24,12,13,9)         179.9564         estimate D2E/DX2                !
 ! D64   D(24,12,13,29)         -0.0681         estimate D2E/DX2                !
 --------------------------------------------------------------------------------
 Trust Radius=3.00D-01 FncErr=1.00D-07 GrdErr=1.00D-06
 Number of steps in this run=    151 maximum allowed number of steps=    174.
 GradGradGradGradGradGradGradGradGradGradGradGradGradGradGradGradGradGrad

                          Input orientation:                          
 ---------------------------------------------------------------------
 Center     Atomic      Atomic             Coordinates (Angstroms)
 Number     Number       Type             X           Y           Z
 ---------------------------------------------------------------------
      1          6           0       -1.035268    2.036279    0.433533
      2          6           0        0.318954    1.444268    0.049933
      3          6           0        1.430272    2.480952    0.153832
      4          7           0        2.710614    1.895270   -0.217200
      5          6           0        3.870860    2.561474    0.052649
      6          8           0        3.904281    3.600726    0.689294
      7          7           0        4.997279    1.906863   -0.455786
      8          6           0        6.312318    2.318179   -0.391080
      9          6           0        7.364453    1.540672   -0.951232
     10          6           0        6.677789    3.530572    0.224956
     11          6           0        8.003673    3.904931    0.258935
     12          6           0        9.041218    3.151525   -0.284603
     13          6           0        8.697827    1.961829   -0.890880
     14          1           0       -1.828437    1.287670    0.356782
     15          1           0       -1.298801    2.873524   -0.221399
     16          1           0        0.272340    1.057472   -0.977398
     17          1           0        0.560122    0.595641    0.701115
     18          1           0        1.520038    2.849420    1.179721
     19          1           0        1.206898    3.348674   -0.482553
     20          1           0        2.706765    1.162759   -0.915329
     21          1           0        5.924069    4.162367    0.672678
     22          9           0        8.310800    5.065209    0.853788
     23          7           0        7.140076    0.266536   -1.622077
     24          1           0       10.065637    3.498339   -0.224739
     25          8           0        8.099028   -0.320765   -2.084372
     26          8           0        5.991739   -0.175667   -1.700914
     27          1           0       -1.021929    2.407654    1.463575
     28          1           0        4.866851    1.003565   -0.897744
     29          1           0        9.453793    1.326432   -1.334726
 ---------------------------------------------------------------------
                    Distance matrix (angstroms):
                    1          2          3          4          5
     1  C    0.000000
     2  C    1.526939   0.000000
     3  C    2.520883   1.523331   0.000000
     4  N    3.804598   2.448428   1.456010   0.000000
     5  C    4.948837   3.723465   2.444012   1.364850   0.000000
     6  O    5.187683   4.232454   2.767912   2.270496   1.219213
     7  N    6.099119   4.728263   3.663980   2.299107   1.398514
     8  C    7.399085   6.072777   4.915058   3.630613   2.493352
     9  C    8.527515   7.116930   6.108994   4.724697   3.775580
    10  C    7.859240   6.694630   5.351934   4.313721   2.974507
    11  C    9.231728   8.071769   6.726691   5.681718   4.350584
    12  C   10.163418   8.894073   7.652999   6.454399   5.214835
    13  C    9.823072   8.447396   7.360589   6.025362   4.954738
    14  H    1.093355   2.174849   3.476247   4.615368   5.847825
    15  H    1.095154   2.175667   2.782580   4.127034   5.186316
    16  H    2.158386   1.098723   2.155640   2.687933   4.033901
    17  H    2.166173   1.096525   2.147341   2.675248   3.904611
    18  H    2.783448   2.166443   1.093743   2.068637   2.622893
    19  H    2.754796   2.167660   1.099011   2.108070   2.828926
    20  H    4.072503   2.590872   2.123717   1.011916   2.061190
    21  H    7.280784   6.260447   4.826031   4.032110   2.676372
    22  F    9.833616   8.810618   7.383088   6.523619   5.159805
    23  N    8.613581   7.121122   6.376469   4.924083   4.331192
    24  H   11.216106   9.964562   8.703329   7.527699   6.271358
    25  O    9.763752   8.258338   7.571756   6.118181   5.545409
    26  O    7.669902   6.153872   5.595059   4.154030   3.881372
    27  H    1.095027   2.173583   2.781023   4.125460   5.094483
    28  H    6.137899   4.666442   3.885687   2.430563   2.079020
    29  H   10.660723   9.239938   8.241700   6.858783   5.883815
                    6          7          8          9         10
     6  O    0.000000
     7  N    2.318410   0.000000
     8  C    2.934412   1.379382   0.000000
     9  C    4.348326   2.446033   1.423122   0.000000
    10  C    2.812983   2.433917   1.408178   2.411354   0.000000
    11  C    4.133130   3.679879   2.408523   2.731817   1.378140
    12  C    5.247702   4.234611   2.855294   2.418839   2.447269
    13  C    5.306695   3.726443   2.463217   1.399607   2.790448
    14  H    6.190707   6.901744   8.239729   9.288926   8.797947
    15  H    5.332003   6.374166   7.633239   8.795518   8.016042
    16  H    4.736771   4.828932   6.197941   7.108603   6.970771
    17  H    4.496007   4.769285   6.103096   7.065568   6.801940
    18  H    2.547468   3.956577   5.071053   6.356962   5.289417
    19  H    2.951717   4.055431   5.209184   6.434596   5.519448
    20  H    3.154766   2.451800   3.822283   4.673133   4.761914
    21  H    2.096488   2.686945   2.164105   3.403685   1.080608
    22  F    4.646415   4.761256   3.617983   4.071367   2.327502
    23  N    5.189377   2.939811   2.531754   1.457327   3.778779
    24  H    6.229627   5.317371   3.938002   3.414183   3.417716
    25  O    6.377085   4.151561   3.608822   2.299686   4.710171
    26  O    4.932719   2.622255   2.835084   2.322109   4.232711
    27  H    5.127424   6.337634   7.565641   8.770083   7.879135
    28  H    3.192253   1.014044   2.018487   2.555262   3.305407
    29  H    6.329783   4.579296   3.426791   2.135019   3.872601
                   11         12         13         14         15
    11  C    0.000000
    12  C    1.392678   0.000000
    13  C    2.362111   1.378720   0.000000
    14  H   10.174971  11.046933  10.621364   0.000000
    15  H    9.371796  10.343949  10.060416   1.769107   0.000000
    16  H    8.331269   9.042026   8.474324   2.499259   2.517552
    17  H    8.158025   8.912529   8.403758   2.510515   3.081457
    18  H    6.633210   7.668354   7.523022   3.785311   3.147948
    19  H    6.859693   7.839300   7.629160   3.763705   2.563688
    20  H    6.079115   6.669206   6.044165   4.711892   4.410535
    21  H    2.135933   3.413913   3.870506   8.274360   7.391235
    22  F    1.339561   2.343423   3.581149  10.831479   9.914835
    23  N    4.185919   3.704907   2.415626   9.240824   8.942759
    24  H    2.156607   1.083189   2.162294  12.111739  11.381603
    25  O    4.832875   4.022895   2.644469  10.348954  10.099175
    26  O    4.953803   4.730271   3.542309   8.217702   8.039808
    27  H    9.227919  10.240918  10.010788   1.769127   1.769980
    28  H    4.426678   4.734450   3.949011   6.817730   6.478384
    29  H    3.360247   2.145680   1.082688  11.408393  10.920224
                   16         17         18         19         20
    16  H    0.000000
    17  H    1.764514   0.000000
    18  H    3.069363   2.496001   0.000000
    19  H    2.523465   3.065710   1.763652   0.000000
    20  H    2.437491   2.746377   2.939793   2.686098   0.000000
    21  H    6.656213   6.441605   4.623464   4.924263   4.676587
    22  F    9.166899   8.948372   7.150552   7.429517   7.054368
    23  N    6.943125   6.985795   6.790154   6.782381   4.577877
    24  H   10.120919   9.981867   8.684519   8.863754   7.751442
    25  O    8.023837   8.089118   7.999217   7.970700   5.713493
    26  O    5.895390   5.988916   6.119258   6.066307   3.633123
    27  H    3.075138   2.523415   2.595636   3.104932   4.594792
    28  H    4.595517   4.612013   4.350195   4.366598   2.166016
    29  H    9.192339   9.152928   8.460875   8.533870   6.762032
                   21         22         23         24         25
    21  H    0.000000
    22  F    2.558204   0.000000
    23  N    4.682101   5.525194   0.000000
    24  H    4.289391   2.588003   4.577773   0.000000
    25  O    5.694756   6.138921   1.215823   4.680955   0.000000
    26  O    4.945408   6.274658   1.233060   5.681026   2.146802
    27  H    7.207734   9.722873   8.984652  11.268280  10.159924
    28  H    3.682658   5.605854   2.497083   5.805533   3.689024
    29  H    4.952893   4.480456   2.561100   2.514678   2.260667
                   26         27         28         29
    26  O    0.000000
    27  H    8.116593   0.000000
    28  H    1.816877   6.498079   0.000000
    29  H    3.791598  10.896802   4.619008   0.000000
 Stoichiometry    C10H12FN3O3
 Framework group  C1[X(C10H12FN3O3)]
 Deg. of freedom    81
 Full point group                 C1      NOp   1
 Largest Abelian subgroup         C1      NOp   1
 Largest concise Abelian subgroup C1      NOp   1
                         Standard orientation:                         
 ---------------------------------------------------------------------
 Center     Atomic      Atomic             Coordinates (Angstroms)
 Number     Number       Type             X           Y           Z
 ---------------------------------------------------------------------
      1          6           0       -6.313569   -0.145070   -0.025089
      2          6           0       -4.951046    0.536698   -0.126415
      3          6           0       -3.816367   -0.440800    0.152036
      4          7           0       -2.528328    0.230571    0.051132
      5          6           0       -1.377690   -0.501888    0.002643
      6          8           0       -1.370685   -1.719467   -0.060075
      7          7           0       -0.230659    0.298205    0.006002
      8          6           0        1.085421   -0.114773   -0.002835
      9          6           0        2.159234    0.819142   -0.004646
     10          6           0        1.431476   -1.479768   -0.002525
     11          6           0        2.760127   -1.845768   -0.003445
     12          6           0        3.818639   -0.940730   -0.006585
     13          6           0        3.494390    0.399318   -0.007066
     14          1           0       -7.123486    0.561477   -0.225718
     15          1           0       -6.471680   -0.562433    0.974997
     16          1           0       -4.903138    1.368685    0.589612
     17          1           0       -4.815212    0.966205   -1.126135
     18          1           0       -3.821988   -1.256694   -0.576360
     19          1           0       -3.935336   -0.894434    1.145961
     20          1           0       -2.487034    1.207822    0.310458
     21          1           0        0.660276   -2.236704   -0.006007
     22          9           0        3.048384   -3.153947   -0.002944
     23          7           0        1.956721    2.262328   -0.002607
     24          1           0        4.843921   -1.290142   -0.009116
     25          8           0        2.935159    2.983912    0.011597
     26          8           0        0.806519    2.706533   -0.015046
     27          1           0       -6.395445   -0.964287   -0.747075
     28          1           0       -0.349368    1.304796   -0.025107
     29          1           0        4.267263    1.157524   -0.008935
 ---------------------------------------------------------------------
 Rotational constants (GHZ):      0.7324073      0.2257600      0.1732220
 General basis read from cards:  (6D, 7F)
 There are   347 symmetry adapted cartesian basis functions of A   symmetry.
 There are   347 symmetry adapted basis functions of A   symmetry.
   347 basis functions,   592 primitive gaussians,   347 cartesian basis functions
    63 alpha electrons       63 beta electrons
       nuclear repulsion energy      1185.4607342804 Hartrees.
 NAtoms=   29 NActive=   29 NUniq=   29 SFac= 1.00D+00 NAtFMM=   60 NAOKFM=F Big=F
 Integral buffers will be    131072 words long.
 Raffenetti 2 integral format.
 Two-electron integral symmetry is turned on.
 ------------------------------------------------------------------------------
 Polarizable Continuum Model (PCM)
 =================================
 Model                : PCM (using non-symmetric T matrix).
 Atomic radii         : SMD-Coulomb.
 Polarization charges : Total charges.
 Charge compensation  : None.
 Solution method      : On-the-fly selection.
 Cavity type          : VdW (van der Waals Surface) (Alpha=1.000).
 Cavity algorithm     : GePol (No added spheres)
                        Default sphere list used, NSphG=   29.
                        Lebedev-Laikov grids with approx.  5.0 points / Ang**2.
                        Smoothing algorithm: York/Karplus (Gamma=1.0000).
                        Polarization charges: spherical gaussians, with
                                              point-specific exponents (IZeta= 3).
                        Self-potential: point-specific (ISelfS= 7).
                        Self-field    : sphere-specific E.n sum rule (ISelfD= 2).
 1st derivatives      : Analytical E(r).r(x)/FMM algorithm (CHGder, D1EAlg=3).
                        Cavity 1st derivative terms included.
 Solvent              : Water, Eps=  78.355300 Eps(inf)=   1.777849
 ------------------------------------------------------------------------------
 ------------------------------------------------------------------------------
 Atomic radii for non-electrostatic terms: SMD-CDS.
 ------------------------------------------------------------------------------
 Nuclear repulsion after PCM non-electrostatic terms =     1185.4735721393 Hartrees.
 One-electron integrals computed using PRISM.
 NBasis=   347 RedAO= T EigKep=  1.00D-06  NBF=   347
 NBsUse=   346 1.00D-06 EigRej=  8.62D-07 NBFU=   346
 ExpMin= 4.38D-02 ExpMax= 7.00D+03 ExpMxC= 1.05D+03 IAcc=3 IRadAn=         5 AccDes= 0.00D+00
 Harris functional with IExCor= 1009 and IRadAn=       5 diagonalized for initial guess.
 HarFok:  IExCor= 1009 AccDes= 0.00D+00 IRadAn=         5 IDoV= 1 UseB2=F ITyADJ=14
 ICtDFT=  3500011 ScaDFX=  1.000000  1.000000  1.000000  1.000000
 FoFCou: FMM=F IPFlag=           0 FMFlag=      100000 FMFlg1=           0
         NFxFlg=           0 DoJE=T BraDBF=F KetDBF=T FulRan=T
         wScrn=  0.000000 ICntrl=     500 IOpCl=  0 I1Cent=   200000004 NGrid=           0
         NMat0=    1 NMatS0=      1 NMatT0=    0 NMatD0=    1 NMtDS0=    0 NMtDT0=    0
 Petite list used in FoFCou.
 Requested convergence on RMS density matrix=1.00D-08 within 128 cycles.
 Requested convergence on MAX density matrix=1.00D-06.
 Requested convergence on             energy=1.00D-06.
 No special actions if energy rises.
 Inv3:  Mode=1 IEnd=    14572848.
 Iteration    1 A*A^-1 deviation from unit magnitude is 4.88D-15 for   2195.
 Iteration    1 A*A^-1 deviation from orthogonality  is 2.72D-15 for   1783    127.
 Iteration    1 A^-1*A deviation from unit magnitude is 5.77D-15 for   2195.
 Iteration    1 A^-1*A deviation from orthogonality  is 1.06D-13 for   1341   1329.
 Error on total polarization charges =  0.05725
 SCF Done:  E(RM062X) =  -877.676798279     A.U. after   15 cycles
            NFock= 15  Conv=0.68D-08     -V/T= 2.0083
 SMD-CDS (non-electrostatic) energy       (kcal/mol) =       8.06
 (included in total energy above)

 **********************************************************************

            Population analysis using the SCF density.

 **********************************************************************

 Orbital symmetries:
       Occupied  (A) (A) (A) (A) (A) (A) (A) (A) (A) (A) (A) (A)
                 (A) (A) (A) (A) (A) (A) (A) (A) (A) (A) (A) (A)
                 (A) (A) (A) (A) (A) (A) (A) (A) (A) (A) (A) (A)
                 (A) (A) (A) (A) (A) (A) (A) (A) (A) (A) (A) (A)
                 (A) (A) (A) (A) (A) (A) (A) (A) (A) (A) (A) (A)
                 (A) (A) (A)
       Virtual   (A) (A) (A) (A) (A) (A) (A) (A) (A) (A) (A) (A)
                 (A) (A) (A) (A) (A) (A) (A) (A) (A) (A) (A) (A)
                 (A) (A) (A) (A) (A) (A) (A) (A) (A) (A) (A) (A)
                 (A) (A) (A) (A) (A) (A) (A) (A) (A) (A) (A) (A)
                 (A) (A) (A) (A) (A) (A) (A) (A) (A) (A) (A) (A)
                 (A) (A) (A) (A) (A) (A) (A) (A) (A) (A) (A) (A)
                 (A) (A) (A) (A) (A) (A) (A) (A) (A) (A) (A) (A)
                 (A) (A) (A) (A) (A) (A) (A) (A) (A) (A) (A) (A)
                 (A) (A) (A) (A) (A) (A) (A) (A) (A) (A) (A) (A)
                 (A) (A) (A) (A) (A) (A) (A) (A) (A) (A) (A) (A)
                 (A) (A) (A) (A) (A) (A) (A) (A) (A) (A) (A) (A)
                 (A) (A) (A) (A) (A) (A) (A) (A) (A) (A) (A) (A)
                 (A) (A) (A) (A) (A) (A) (A) (A) (A) (A) (A) (A)
                 (A) (A) (A) (A) (A) (A) (A) (A) (A) (A) (A) (A)
                 (A) (A) (A) (A) (A) (A) (A) (A) (A) (A) (A) (A)
                 (A) (A) (A) (A) (A) (A) (A) (A) (A) (A) (A) (A)
                 (A) (A) (A) (A) (A) (A) (A) (A) (A) (A) (A) (A)
                 (A) (A) (A) (A) (A) (A) (A) (A) (A) (A) (A) (A)
                 (A) (A) (A) (A) (A) (A) (A) (A) (A) (A) (A) (A)
                 (A) (A) (A) (A) (A) (A) (A) (A) (A) (A) (A) (A)
                 (A) (A) (A) (A) (A) (A) (A) (A) (A) (A) (A) (A)
                 (A) (A) (A) (A) (A) (A) (A) (A) (A) (A) (A) (A)
                 (A) (A) (A) (A) (A) (A) (A) (A) (A) (A) (A) (A)
                 (A) (A) (A) (A) (A) (A) (A)
 The electronic state is 1-A.
 Alpha  occ. eigenvalues --  -25.29718 -19.70329 -19.70268 -19.63490 -15.03719
 Alpha  occ. eigenvalues --  -14.81339 -14.78977 -10.70362 -10.66489 -10.65031
 Alpha  occ. eigenvalues --  -10.62629 -10.58811 -10.57679 -10.57055 -10.57018
 Alpha  occ. eigenvalues --  -10.54180 -10.52941  -1.39396  -1.38982  -1.20278
 Alpha  occ. eigenvalues --   -1.19917  -1.08070  -1.03853  -0.99228  -0.92399
 Alpha  occ. eigenvalues --   -0.88706  -0.86586  -0.81146  -0.78120  -0.74248
 Alpha  occ. eigenvalues --   -0.72310  -0.68930  -0.68372  -0.65972  -0.65841
 Alpha  occ. eigenvalues --   -0.64435  -0.63851  -0.62955  -0.58802  -0.58511
 Alpha  occ. eigenvalues --   -0.58108  -0.56022  -0.53901  -0.53392  -0.52660
 Alpha  occ. eigenvalues --   -0.51642  -0.50799  -0.49751  -0.47834  -0.46611
 Alpha  occ. eigenvalues --   -0.45117  -0.44715  -0.42083  -0.41424  -0.40948
 Alpha  occ. eigenvalues --   -0.40204  -0.40086  -0.39505  -0.39035  -0.36666
 Alpha  occ. eigenvalues --   -0.33462  -0.32878  -0.28958
 Alpha virt. eigenvalues --   -0.06851   0.00181   0.01621   0.03044   0.03309
 Alpha virt. eigenvalues --    0.03400   0.04043   0.04276   0.04389   0.05135
 Alpha virt. eigenvalues --    0.06185   0.06566   0.06873   0.07671   0.08042
 Alpha virt. eigenvalues --    0.08272   0.08664   0.08843   0.09778   0.10063
 Alpha virt. eigenvalues --    0.10531   0.11015   0.11284   0.11886   0.12818
 Alpha virt. eigenvalues --    0.13936   0.14111   0.14151   0.15116   0.15445
 Alpha virt. eigenvalues --    0.15576   0.16034   0.16903   0.17551   0.17838
 Alpha virt. eigenvalues --    0.18128   0.18260   0.18820   0.19849   0.20588
 Alpha virt. eigenvalues --    0.20999   0.21260   0.22052   0.22315   0.22465
 Alpha virt. eigenvalues --    0.23077   0.23332   0.24074   0.24280   0.24422
 Alpha virt. eigenvalues --    0.24472   0.24815   0.25429   0.26538   0.26988
 Alpha virt. eigenvalues --    0.27256   0.27908   0.28107   0.28322   0.28501
 Alpha virt. eigenvalues --    0.29438   0.29757   0.30272   0.30710   0.31155
 Alpha virt. eigenvalues --    0.31616   0.32202   0.32295   0.32628   0.33120
 Alpha virt. eigenvalues --    0.33981   0.34109   0.34606   0.34763   0.35246
 Alpha virt. eigenvalues --    0.36189   0.36662   0.37144   0.37286   0.37622
 Alpha virt. eigenvalues --    0.38714   0.39449   0.40472   0.40836   0.41115
 Alpha virt. eigenvalues --    0.42278   0.43263   0.44627   0.45079   0.45898
 Alpha virt. eigenvalues --    0.47366   0.48171   0.48534   0.51060   0.51704
 Alpha virt. eigenvalues --    0.52641   0.53910   0.55802   0.60261   0.65929
 Alpha virt. eigenvalues --    0.68054   0.68387   0.68734   0.70264   0.70746
 Alpha virt. eigenvalues --    0.73238   0.74203   0.74649   0.75691   0.76738
 Alpha virt. eigenvalues --    0.77157   0.78145   0.78917   0.79304   0.80248
 Alpha virt. eigenvalues --    0.81575   0.83343   0.85393   0.86715   0.86847
 Alpha virt. eigenvalues --    0.89142   0.89791   0.91587   0.93084   0.95316
 Alpha virt. eigenvalues --    0.96101   0.97971   0.99601   1.00883   1.01646
 Alpha virt. eigenvalues --    1.03818   1.04293   1.04632   1.06269   1.07075
 Alpha virt. eigenvalues --    1.07625   1.09707   1.10430   1.11207   1.13251
 Alpha virt. eigenvalues --    1.14511   1.15023   1.15800   1.17094   1.18711
 Alpha virt. eigenvalues --    1.19625   1.21055   1.22563   1.23524   1.23799
 Alpha virt. eigenvalues --    1.24381   1.25107   1.25561   1.26465   1.28042
 Alpha virt. eigenvalues --    1.30879   1.32972   1.33078   1.33966   1.35291
 Alpha virt. eigenvalues --    1.37012   1.37301   1.38017   1.38325   1.39051
 Alpha virt. eigenvalues --    1.40005   1.40408   1.42953   1.43750   1.46290
 Alpha virt. eigenvalues --    1.47490   1.48314   1.49575   1.49901   1.50891
 Alpha virt. eigenvalues --    1.52112   1.54865   1.56148   1.56532   1.60139
 Alpha virt. eigenvalues --    1.64156   1.67886   1.68935   1.70035   1.73481
 Alpha virt. eigenvalues --    1.74449   1.76799   1.78498   1.80551   1.81077
 Alpha virt. eigenvalues --    1.82567   1.83609   1.84816   1.85889   1.86013
 Alpha virt. eigenvalues --    1.86762   1.87588   1.88129   1.89829   1.90707
 Alpha virt. eigenvalues --    1.92809   1.94752   1.95841   1.97479   1.98468
 Alpha virt. eigenvalues --    1.99029   2.00095   2.01369   2.02192   2.02418
 Alpha virt. eigenvalues --    2.03670   2.05499   2.05685   2.06514   2.07724
 Alpha virt. eigenvalues --    2.13025   2.13963   2.15480   2.17799   2.18601
 Alpha virt. eigenvalues --    2.20606   2.21703   2.24840   2.25545   2.26082
 Alpha virt. eigenvalues --    2.27246   2.29957   2.31655   2.32123   2.35690
 Alpha virt. eigenvalues --    2.37190   2.37927   2.39503   2.42088   2.44052
 Alpha virt. eigenvalues --    2.45531   2.49678   2.52752   2.53971   2.54472
 Alpha virt. eigenvalues --    2.59345   2.61594   2.62138   2.65539   2.69324
 Alpha virt. eigenvalues --    2.71870   2.72825   2.73050   2.73892   2.76229
 Alpha virt. eigenvalues --    2.78697   2.79373   2.83929   2.87553   2.90475
 Alpha virt. eigenvalues --    2.97224   3.03807   3.06627   3.12424   3.13608
 Alpha virt. eigenvalues --    3.14888   3.19186   3.26168   3.31644   3.36713
 Alpha virt. eigenvalues --    3.48457   4.10750   4.19733   4.27934   4.28364
 Alpha virt. eigenvalues --    4.30990   4.37483   4.40543   4.42715   4.47972
 Alpha virt. eigenvalues --    4.50379   4.55058   4.55838   4.59750   4.73829
 Alpha virt. eigenvalues --    4.81970   4.86395   6.07041
          Condensed to atoms (all electrons):
               1          2          3          4          5          6
     1  C    5.665159  -0.033899   0.002816  -0.005593  -0.041187  -0.003106
     2  C   -0.033899   6.028820  -0.176772  -0.042658   0.051933   0.005481
     3  C    0.002816  -0.176772   6.493212   0.276875  -0.507949  -0.091076
     4  N   -0.005593  -0.042658   0.276875   7.466913   0.513731  -0.178147
     5  C   -0.041187   0.051933  -0.507949   0.513731   6.370905   0.580611
     6  O   -0.003106   0.005481  -0.091076  -0.178147   0.580611   8.445844
     7  N   -0.000121  -0.006869  -0.094403  -0.305994   0.065819  -0.073523
     8  C   -0.001832  -0.008929  -0.408923  -0.317737  -1.560476  -0.360706
     9  C   -0.000704  -0.003290  -0.032602  -0.019558  -0.671413   0.001556
    10  C   -0.000658   0.005226   0.010052   0.074328   0.539667   0.246474
    11  C   -0.000550  -0.001515  -0.032551   0.028696  -0.523837   0.111660
    12  C    0.000067   0.000111   0.004349  -0.000880   0.047261   0.000617
    13  C   -0.000100  -0.001001   0.014691  -0.018881   0.386878   0.000541
    14  H    0.412105  -0.080505   0.023190   0.000745  -0.000767   0.000004
    15  H    0.403255  -0.064057   0.000034   0.000553   0.006806  -0.000011
    16  H   -0.033667   0.425784  -0.075751   0.003205  -0.003350  -0.000122
    17  H   -0.042744   0.432364  -0.078414   0.007028   0.001205  -0.000113
    18  H    0.006261  -0.046975   0.464002  -0.049686  -0.051241   0.004133
    19  H   -0.004476  -0.042657   0.384861  -0.055111   0.015979   0.003639
    20  H   -0.002298   0.000643  -0.059697   0.253631   0.016900   0.007659
    21  H    0.000000   0.000065   0.003204   0.000075   0.036939  -0.007739
    22  F    0.000000  -0.000001   0.000080  -0.000009  -0.000163   0.000119
    23  N   -0.000034  -0.000332  -0.021687  -0.024086  -0.247977   0.000314
    24  H    0.000000  -0.000000   0.000003  -0.000000   0.000761   0.000007
    25  O    0.000000  -0.000013   0.000059  -0.001014  -0.002854  -0.000090
    26  O   -0.000033   0.000551   0.004218   0.000525   0.109918  -0.000530
    27  H    0.432405  -0.064630  -0.014100   0.000516  -0.006855  -0.000082
    28  H   -0.000135   0.000024  -0.004437   0.002670  -0.023404   0.004849
    29  H   -0.000000  -0.000000   0.000010   0.000001   0.001664  -0.000004
               7          8          9         10         11         12
     1  C   -0.000121  -0.001832  -0.000704  -0.000658  -0.000550   0.000067
     2  C   -0.006869  -0.008929  -0.003290   0.005226  -0.001515   0.000111
     3  C   -0.094403  -0.408923  -0.032602   0.010052  -0.032551   0.004349
     4  N   -0.305994  -0.317737  -0.019558   0.074328   0.028696  -0.000880
     5  C    0.065819  -1.560476  -0.671413   0.539667  -0.523837   0.047261
     6  O   -0.073523  -0.360706   0.001556   0.246474   0.111660   0.000617
     7  N    7.820413   0.223050   0.013204  -0.106944  -0.042955  -0.054395
     8  C    0.223050  15.933208  -0.497218  -4.944531  -1.913954  -0.887304
     9  C    0.013204  -0.497218  15.167328   0.071365   0.720562  -1.578856
    10  C   -0.106944  -4.944531   0.071365  14.891121  -2.648359   0.157273
    11  C   -0.042955  -1.913954   0.720562  -2.648359  10.106368  -0.043923
    12  C   -0.054395  -0.887304  -1.578856   0.157273  -0.043923   8.975727
    13  C    0.089049   0.532386  -5.714892  -2.629297   0.125417  -0.826401
    14  H    0.000015  -0.000020   0.000003  -0.000004  -0.000000  -0.000000
    15  H    0.000042   0.000191  -0.000009   0.000009  -0.000000   0.000000
    16  H    0.001233  -0.002055   0.000197  -0.000066  -0.000008   0.000001
    17  H   -0.000686   0.001691  -0.000231  -0.000041   0.000002   0.000001
    18  H    0.002829  -0.013093   0.000215   0.003076   0.000048   0.000014
    19  H   -0.001950   0.005733  -0.000035   0.000883   0.000364  -0.000001
    20  H    0.018627   0.011544   0.002095   0.001227  -0.000367   0.000041
    21  H   -0.013369   0.002322   0.003514   0.273605  -0.012262   0.006480
    22  F   -0.002586  -0.005525  -0.036615  -0.154935   0.324920  -0.163489
    23  N   -0.094800   0.586791   0.003233   0.036746  -0.084154  -0.004785
    24  H    0.000193   0.000133   0.007159   0.062882  -0.100989   0.351471
    25  O   -0.012774   0.039912  -0.410945  -0.085617  -0.005962   0.238514
    26  O    0.051953  -0.254881  -0.287050   0.007519   0.026480  -0.060539
    27  H    0.000004  -0.000119   0.000002  -0.000087  -0.000006   0.000000
    28  H    0.225219  -0.060550   0.014064   0.020549   0.019294  -0.000635
    29  H   -0.000188   0.029635   0.038088  -0.000788  -0.014833  -0.012174
              13         14         15         16         17         18
     1  C   -0.000100   0.412105   0.403255  -0.033667  -0.042744   0.006261
     2  C   -0.001001  -0.080505  -0.064057   0.425784   0.432364  -0.046975
     3  C    0.014691   0.023190   0.000034  -0.075751  -0.078414   0.464002
     4  N   -0.018881   0.000745   0.000553   0.003205   0.007028  -0.049686
     5  C    0.386878  -0.000767   0.006806  -0.003350   0.001205  -0.051241
     6  O    0.000541   0.000004  -0.000011  -0.000122  -0.000113   0.004133
     7  N    0.089049   0.000015   0.000042   0.001233  -0.000686   0.002829
     8  C    0.532386  -0.000020   0.000191  -0.002055   0.001691  -0.013093
     9  C   -5.714892   0.000003  -0.000009   0.000197  -0.000231   0.000215
    10  C   -2.629297  -0.000004   0.000009  -0.000066  -0.000041   0.003076
    11  C    0.125417  -0.000000  -0.000000  -0.000008   0.000002   0.000048
    12  C   -0.826401  -0.000000   0.000000   0.000001   0.000001   0.000014
    13  C   13.231775   0.000000  -0.000001   0.000015  -0.000022   0.000071
    14  H    0.000000   0.477063  -0.024851  -0.002895  -0.002730  -0.000052
    15  H   -0.000001  -0.024851   0.483527  -0.004445   0.003684  -0.000246
    16  H    0.000015  -0.002895  -0.004445   0.489749  -0.033808   0.003693
    17  H   -0.000022  -0.002730   0.003684  -0.033808   0.486660  -0.005368
    18  H    0.000071  -0.000052  -0.000246   0.003693  -0.005368   0.473384
    19  H   -0.000032  -0.000065   0.002548  -0.005325   0.003819  -0.038688
    20  H    0.000388  -0.000001  -0.000003   0.002361  -0.000497   0.002649
    21  H    0.004671  -0.000000   0.000000  -0.000000  -0.000000   0.000002
    22  F    0.007527   0.000000  -0.000000   0.000000  -0.000000   0.000000
    23  N   -0.667791  -0.000000   0.000000  -0.000008   0.000010  -0.000013
    24  H   -0.004725   0.000000   0.000000  -0.000000   0.000000   0.000000
    25  O    0.154788  -0.000000  -0.000000   0.000000  -0.000000   0.000000
    26  O    0.400779  -0.000000   0.000000  -0.000001   0.000000   0.000003
    27  H    0.000000  -0.024965  -0.030187   0.003789  -0.004478   0.002264
    28  H    0.017772  -0.000000  -0.000000   0.000002  -0.000001   0.000008
    29  H    0.290213  -0.000000   0.000000   0.000000  -0.000000   0.000000
              19         20         21         22         23         24
     1  C   -0.004476  -0.002298   0.000000   0.000000  -0.000034   0.000000
     2  C   -0.042657   0.000643   0.000065  -0.000001  -0.000332  -0.000000
     3  C    0.384861  -0.059697   0.003204   0.000080  -0.021687   0.000003
     4  N   -0.055111   0.253631   0.000075  -0.000009  -0.024086  -0.000000
     5  C    0.015979   0.016900   0.036939  -0.000163  -0.247977   0.000761
     6  O    0.003639   0.007659  -0.007739   0.000119   0.000314   0.000007
     7  N   -0.001950   0.018627  -0.013369  -0.002586  -0.094800   0.000193
     8  C    0.005733   0.011544   0.002322  -0.005525   0.586791   0.000133
     9  C   -0.000035   0.002095   0.003514  -0.036615   0.003233   0.007159
    10  C    0.000883   0.001227   0.273605  -0.154935   0.036746   0.062882
    11  C    0.000364  -0.000367  -0.012262   0.324920  -0.084154  -0.100989
    12  C   -0.000001   0.000041   0.006480  -0.163489  -0.004785   0.351471
    13  C   -0.000032   0.000388   0.004671   0.007527  -0.667791  -0.004725
    14  H   -0.000065  -0.000001  -0.000000   0.000000  -0.000000   0.000000
    15  H    0.002548  -0.000003   0.000000  -0.000000   0.000000   0.000000
    16  H   -0.005325   0.002361  -0.000000   0.000000  -0.000008  -0.000000
    17  H    0.003819  -0.000497  -0.000000  -0.000000   0.000010   0.000000
    18  H   -0.038688   0.002649   0.000002   0.000000  -0.000013   0.000000
    19  H    0.495727   0.000691  -0.000001  -0.000000   0.000016   0.000000
    20  H    0.000691   0.266036   0.000001   0.000000   0.000524   0.000000
    21  H   -0.000001   0.000001   0.398159  -0.003246  -0.001226  -0.000086
    22  F   -0.000000   0.000000  -0.003246   9.372130   0.000629  -0.002321
    23  N    0.000016   0.000524  -0.001226   0.000629   7.340247   0.000040
    24  H    0.000000   0.000000  -0.000086  -0.002321   0.000040   0.402525
    25  O   -0.000000  -0.000010   0.000026  -0.000013   0.381381  -0.000071
    26  O   -0.000002  -0.000168   0.000163  -0.000020   0.144445   0.000034
    27  H   -0.000417   0.000004  -0.000000   0.000000  -0.000000  -0.000000
    28  H    0.000008   0.002640  -0.000100   0.000009  -0.016627  -0.000000
    29  H   -0.000000  -0.000000   0.000007  -0.000372  -0.037263  -0.002309
              25         26         27         28         29
     1  C    0.000000  -0.000033   0.432405  -0.000135  -0.000000
     2  C   -0.000013   0.000551  -0.064630   0.000024  -0.000000
     3  C    0.000059   0.004218  -0.014100  -0.004437   0.000010
     4  N   -0.001014   0.000525   0.000516   0.002670   0.000001
     5  C   -0.002854   0.109918  -0.006855  -0.023404   0.001664
     6  O   -0.000090  -0.000530  -0.000082   0.004849  -0.000004
     7  N   -0.012774   0.051953   0.000004   0.225219  -0.000188
     8  C    0.039912  -0.254881  -0.000119  -0.060550   0.029635
     9  C   -0.410945  -0.287050   0.000002   0.014064   0.038088
    10  C   -0.085617   0.007519  -0.000087   0.020549  -0.000788
    11  C   -0.005962   0.026480  -0.000006   0.019294  -0.014833
    12  C    0.238514  -0.060539   0.000000  -0.000635  -0.012174
    13  C    0.154788   0.400779   0.000000   0.017772   0.290213
    14  H   -0.000000  -0.000000  -0.024965  -0.000000  -0.000000
    15  H   -0.000000   0.000000  -0.030187  -0.000000   0.000000
    16  H    0.000000  -0.000001   0.003789   0.000002   0.000000
    17  H   -0.000000   0.000000  -0.004478  -0.000001  -0.000000
    18  H    0.000000   0.000003   0.002264   0.000008   0.000000
    19  H   -0.000000  -0.000002  -0.000417   0.000008  -0.000000
    20  H   -0.000010  -0.000168   0.000004   0.002640  -0.000000
    21  H    0.000026   0.000163  -0.000000  -0.000100   0.000007
    22  F   -0.000013  -0.000020   0.000000   0.000009  -0.000372
    23  N    0.381381   0.144445  -0.000000  -0.016627  -0.037263
    24  H   -0.000071   0.000034  -0.000000  -0.000000  -0.002309
    25  O    7.873398  -0.068811   0.000000  -0.001292   0.015848
    26  O   -0.068811   8.004268  -0.000000   0.036765  -0.001374
    27  H    0.000000  -0.000000   0.485012   0.000000   0.000000
    28  H   -0.001292   0.036765   0.000000   0.227626  -0.000002
    29  H    0.015848  -0.001374   0.000000  -0.000002   0.397123
 Mulliken charges:
               1
     1  C   -0.750930
     2  C   -0.376899
     3  C   -0.083295
     4  N   -0.610136
     5  C    0.894494
     6  O   -0.698259
     7  N   -0.700093
     8  C   -0.128745
     9  C   -0.789164
    10  C    0.169324
    11  C   -0.037588
    12  C   -0.148543
    13  C    0.606183
    14  H    0.223728
    15  H    0.223160
    16  H    0.231472
    17  H    0.232671
    18  H    0.242711
    19  H    0.234490
    20  H    0.475380
    21  H    0.308796
    22  F   -0.336119
    23  N   -0.293593
    24  H    0.285295
    25  O   -0.114461
    26  O   -0.114211
    27  H    0.221929
    28  H    0.535684
    29  H    0.296719
 Sum of Mulliken charges =  -0.00000
 Mulliken charges with hydrogens summed into heavy atoms:
               1
     1  C   -0.082113
     2  C    0.087244
     3  C    0.393906
     4  N   -0.134756
     5  C    0.894494
     6  O   -0.698259
     7  N   -0.164409
     8  C   -0.128745
     9  C   -0.789164
    10  C    0.478120
    11  C   -0.037588
    12  C    0.136752
    13  C    0.902902
    22  F   -0.336119
    23  N   -0.293593
    25  O   -0.114461
    26  O   -0.114211
 Electronic spatial extent (au):  <R**2>=           5916.5625
 Charge=              0.0000 electrons
 Dipole moment (field-independent basis, Debye):
    X=             -2.2004    Y=              1.3138    Z=              0.7287  Tot=              2.6644
 Quadrupole moment (field-independent basis, Debye-Ang):
   XX=            -76.9161   YY=           -123.5510   ZZ=           -100.0527
   XY=            -13.1710   XZ=             -1.9524   YZ=              0.5175
 Traceless Quadrupole moment (field-independent basis, Debye-Ang):
   XX=             23.2572   YY=            -23.3777   ZZ=              0.1206
   XY=            -13.1710   XZ=             -1.9524   YZ=              0.5175
 Octapole moment (field-independent basis, Debye-Ang**2):
  XXX=              5.9772  YYY=            -27.6572  ZZZ=              0.8416  XYY=            -38.4517
  XXY=             -0.8057  XXZ=              4.0091  XZZ=              0.7159  YZZ=              1.3944
  YYZ=              1.1891  XYZ=             -2.1699
 Hexadecapole moment (field-independent basis, Debye-Ang**3):
 XXXX=          -5429.1368 YYYY=          -1849.1494 ZZZZ=           -124.4350 XXXY=           -140.3383
 XXXZ=            -10.8170 YYYX=           -114.9801 YYYZ=              2.8619 ZZZX=             -3.4800
 ZZZY=             -0.0794 XXYY=          -1390.8261 XXZZ=          -1039.2396 YYZZ=           -274.7473
 XXYZ=              5.0095 YYXZ=             -2.3077 ZZXY=              0.6453
 N-N= 1.185473572139D+03 E-N=-4.419562221411D+03  KE= 8.704548406735D+02
 D1PCM: PCM CHGder 1st derivatives, ID1Alg=3 FixD1E=F DoIter=F DoCFld=F I1PDM=0.
 Calling FoFJK, ICntrl=      2127 FMM=F ISym2X=0 I1Cent= 0 IOpClX= 0 NMat=1 NMatS=1 NMatT=0.
 ***** Axes restored to original set *****
 -------------------------------------------------------------------
 Center     Atomic                   Forces (Hartrees/Bohr)
 Number     Number              X              Y              Z
 -------------------------------------------------------------------
      1        6           0.001226746    0.000357424    0.000348383
      2        6          -0.000600104    0.000225867   -0.000768836
      3        6          -0.001163112    0.000378298    0.000408385
      4        7           0.008139671    0.007418659    0.003701107
      5        6          -0.008558178   -0.025165814   -0.015130042
      6        8           0.001494100    0.015789841    0.009811244
      7        7           0.002198905    0.004822395    0.003274053
      8        6          -0.002278695   -0.000330270    0.000071193
      9        6          -0.000457762   -0.002349362   -0.001185629
     10        6           0.000525761   -0.000041146   -0.000017309
     11        6          -0.001314464   -0.005252909   -0.002703253
     12        6           0.000312723    0.000336903    0.000144302
     13        6          -0.000091103   -0.000158943   -0.000139759
     14        1          -0.000064787   -0.000483510   -0.000154539
     15        1           0.000138346    0.000166837   -0.000344187
     16        1           0.000916930    0.000612999    0.000611914
     17        1          -0.000291635    0.000248489    0.000203950
     18        1          -0.001537467   -0.000696560    0.000524410
     19        1          -0.000206562   -0.000668399   -0.000319101
     20        1           0.000995661   -0.002519489   -0.001621366
     21        1           0.001517793    0.000272229   -0.000274072
     22        9           0.000405223    0.003135564    0.001677247
     23        7          -0.004794077    0.012252248    0.007429759
     24        1           0.000482821   -0.000340093   -0.000251542
     25        8           0.004376125   -0.006034893   -0.003968885
     26        8           0.001726927   -0.002626636   -0.001542023
     27        1           0.000049249    0.000135294    0.000439768
     28        1          -0.004419739   -0.000486325   -0.000635975
     29        1           0.001270703    0.001001301    0.000410804
 -------------------------------------------------------------------
 Cartesian Forces:  Max     0.025165814 RMS     0.004645806

 GradGradGradGradGradGradGradGradGradGradGradGradGradGradGradGradGradGrad
 Berny optimization.
 FormGI is forming the generalized inverse of G from B-inverse, IUseBI=4.
 Internal  Forces:  Max     0.018623514 RMS     0.002252327
 Search for a local minimum.
 Step number   1 out of a maximum of  151
 All quantities printed in internal units (Hartrees-Bohrs-Radians)
 Mixed Optimization -- RFO/linear search
 Second derivative matrix not updated -- first step.
 ITU=  0
     Eigenvalues ---    0.00410   0.00457   0.00933   0.00933   0.00951
     Eigenvalues ---    0.01634   0.01643   0.01711   0.01837   0.01885
     Eigenvalues ---    0.01931   0.01945   0.01965   0.02153   0.02157
     Eigenvalues ---    0.02180   0.02222   0.02272   0.02279   0.02318
     Eigenvalues ---    0.03706   0.04430   0.04917   0.05491   0.05535
     Eigenvalues ---    0.05557   0.08167   0.09246   0.12069   0.12675
     Eigenvalues ---    0.15407   0.15993   0.16000   0.16000   0.16000
     Eigenvalues ---    0.16000   0.16000   0.16000   0.21895   0.21906
     Eigenvalues ---    0.22003   0.22128   0.22372   0.23508   0.24595
     Eigenvalues ---    0.24995   0.24999   0.25000   0.25000   0.25000
     Eigenvalues ---    0.25000   0.25000   0.29708   0.30048   0.33792
     Eigenvalues ---    0.33824   0.34069   0.34224   0.34238   0.34384
     Eigenvalues ---    0.34428   0.35612   0.35671   0.35921   0.37301
     Eigenvalues ---    0.37468   0.40220   0.41943   0.44340   0.45302
     Eigenvalues ---    0.45653   0.45868   0.46049   0.48012   0.48998
     Eigenvalues ---    0.49215   0.51979   0.57303   0.89823   0.95733
     Eigenvalues ---    0.97258
 RFO step:  Lambda=-1.57540790D-03 EMin= 4.09592085D-03
 Linear search not attempted -- first point.
 Iteration  1 RMS(Cart)=  0.02694159 RMS(Int)=  0.00022673
 Iteration  2 RMS(Cart)=  0.00040811 RMS(Int)=  0.00003123
 Iteration  3 RMS(Cart)=  0.00000004 RMS(Int)=  0.00003123
 Variable       Old X    -DE/DX   Delta X   Delta X   Delta X     New X
                                 (Linear)    (Quad)   (Total)
    R1        2.88550  -0.00106   0.00000  -0.00353  -0.00353   2.88196
    R2        2.06614   0.00039   0.00000   0.00112   0.00112   2.06727
    R3        2.06954   0.00030   0.00000   0.00087   0.00087   2.07041
    R4        2.06930   0.00046   0.00000   0.00135   0.00135   2.07065
    R5        2.87868  -0.00189   0.00000  -0.00625  -0.00625   2.87243
    R6        2.07629  -0.00083   0.00000  -0.00244  -0.00244   2.07385
    R7        2.07213  -0.00013   0.00000  -0.00039  -0.00039   2.07174
    R8        2.75146   0.00170   0.00000   0.00453   0.00453   2.75599
    R9        2.06688   0.00013   0.00000   0.00039   0.00039   2.06726
   R10        2.07683  -0.00030   0.00000  -0.00089  -0.00089   2.07594
   R11        2.57919  -0.00959   0.00000  -0.01840  -0.01840   2.56079
   R12        1.91224   0.00294   0.00000   0.00641   0.00641   1.91866
   R13        2.30398   0.01862   0.00000   0.01942   0.01942   2.32340
   R14        2.64281  -0.00323   0.00000  -0.00701  -0.00701   2.63580
   R15        2.60665   0.00154   0.00000   0.00313   0.00313   2.60978
   R16        1.91627   0.00128   0.00000   0.00281   0.00281   1.91908
   R17        2.68931   0.00186   0.00000   0.00472   0.00472   2.69403
   R18        2.66107   0.00006   0.00000   0.00019   0.00019   2.66126
   R19        2.64487   0.00146   0.00000   0.00340   0.00340   2.64827
   R20        2.75395  -0.00422   0.00000  -0.01127  -0.01127   2.74268
   R21        2.60431  -0.00086   0.00000  -0.00195  -0.00194   2.60236
   R22        2.04205  -0.00101   0.00000  -0.00281  -0.00281   2.03924
   R23        2.63178  -0.00124   0.00000  -0.00292  -0.00292   2.62886
   R24        2.53140   0.00355   0.00000   0.00618   0.00618   2.53759
   R25        2.60540  -0.00183   0.00000  -0.00374  -0.00374   2.60166
   R26        2.04693   0.00033   0.00000   0.00093   0.00093   2.04786
   R27        2.04598   0.00013   0.00000   0.00037   0.00037   2.04635
   R28        2.29757   0.00788   0.00000   0.00808   0.00808   2.30566
   R29        2.33015  -0.00057   0.00000  -0.00063  -0.00063   2.32952
    A1        1.93938  -0.00042   0.00000  -0.00288  -0.00289   1.93649
    A2        1.93862  -0.00030   0.00000  -0.00200  -0.00200   1.93662
    A3        1.93585   0.00009   0.00000   0.00096   0.00096   1.93681
    A4        1.88273   0.00030   0.00000   0.00111   0.00110   1.88383
    A5        1.88292   0.00020   0.00000   0.00144   0.00145   1.88436
    A6        1.88199   0.00017   0.00000   0.00160   0.00160   1.88358
    A7        1.94553  -0.00096   0.00000  -0.00538  -0.00539   1.94014
    A8        1.91109   0.00094   0.00000   0.00690   0.00688   1.91797
    A9        1.92403  -0.00004   0.00000  -0.00088  -0.00089   1.92314
   A10        1.91166  -0.00044   0.00000  -0.00595  -0.00593   1.90573
   A11        1.90258   0.00056   0.00000   0.00235   0.00235   1.90492
   A12        1.86727  -0.00002   0.00000   0.00324   0.00324   1.87051
   A13        1.92878   0.00007   0.00000  -0.00048  -0.00049   1.92829
   A14        1.93169  -0.00116   0.00000  -0.00832  -0.00834   1.92335
   A15        1.92788  -0.00039   0.00000  -0.00761  -0.00764   1.92025
   A16        1.87797   0.00123   0.00000   0.01457   0.01458   1.89255
   A17        1.92705  -0.00020   0.00000  -0.00316  -0.00320   1.92386
   A18        1.86902   0.00049   0.00000   0.00567   0.00562   1.87464
   A19        2.09532   0.00199   0.00000   0.00882   0.00882   2.10414
   A20        2.05290  -0.00004   0.00000   0.00144   0.00144   2.05435
   A21        2.08630  -0.00187   0.00000  -0.01033  -0.01033   2.07597
   A22        2.14434   0.00105   0.00000   0.00416   0.00416   2.14850
   A23        1.96529   0.00012   0.00000   0.00044   0.00043   1.96573
   A24        2.17335  -0.00117   0.00000  -0.00467  -0.00467   2.16868
   A25        2.22842   0.00270   0.00000   0.01232   0.01227   2.24070
   A26        2.06214  -0.00538   0.00000  -0.03085  -0.03090   2.03123
   A27        1.99181   0.00270   0.00000   0.01922   0.01917   2.01098
   A28        2.12169   0.00239   0.00000   0.00918   0.00918   2.13087
   A29        2.12314   0.00040   0.00000   0.00127   0.00126   2.12440
   A30        2.03834  -0.00279   0.00000  -0.01047  -0.01046   2.02788
   A31        2.12111   0.00107   0.00000   0.00518   0.00518   2.12629
   A32        2.14721   0.00089   0.00000   0.00308   0.00308   2.15029
   A33        2.01486  -0.00196   0.00000  -0.00826  -0.00826   2.00660
   A34        2.08789   0.00098   0.00000   0.00409   0.00409   2.09198
   A35        2.09857   0.00071   0.00000   0.00541   0.00541   2.10397
   A36        2.09672  -0.00169   0.00000  -0.00948  -0.00949   2.08723
   A37        2.16540   0.00165   0.00000   0.00569   0.00569   2.17109
   A38        2.05648  -0.00136   0.00000  -0.00498  -0.00498   2.05150
   A39        2.06131  -0.00029   0.00000  -0.00071  -0.00071   2.06060
   A40        2.04079  -0.00111   0.00000  -0.00568  -0.00569   2.03510
   A41        2.10575   0.00112   0.00000   0.00632   0.00633   2.11207
   A42        2.13665  -0.00001   0.00000  -0.00064  -0.00064   2.13601
   A43        2.11285   0.00019   0.00000   0.00120   0.00119   2.11404
   A44        2.06113   0.00161   0.00000   0.00993   0.00993   2.07106
   A45        2.10921  -0.00180   0.00000  -0.01113  -0.01112   2.09809
   A46        2.06681   0.00199   0.00000   0.00791   0.00789   2.07470
   A47        2.07872   0.00303   0.00000   0.01204   0.01202   2.09074
   A48        2.13766  -0.00502   0.00000  -0.01994  -0.01996   2.11770
    D1        3.14140  -0.00024   0.00000  -0.00242  -0.00242   3.13898
    D2        1.02336   0.00031   0.00000   0.00392   0.00393   1.02728
    D3       -1.02640  -0.00020   0.00000  -0.00365  -0.00365  -1.03005
    D4        1.04538  -0.00013   0.00000  -0.00055  -0.00056   1.04482
    D5       -1.07267   0.00041   0.00000   0.00579   0.00579  -1.06688
    D6       -3.12243  -0.00010   0.00000  -0.00178  -0.00178  -3.12421
    D7       -1.04736  -0.00021   0.00000  -0.00187  -0.00188  -1.04924
    D8        3.11777   0.00034   0.00000   0.00446   0.00447   3.12225
    D9        1.06802  -0.00017   0.00000  -0.00311  -0.00311   1.06491
   D10       -3.14074   0.00031   0.00000   0.01589   0.01587  -3.12488
   D11        1.06385  -0.00052   0.00000   0.00337   0.00337   1.06723
   D12       -1.00305  -0.00015   0.00000   0.00637   0.00636  -0.99669
   D13       -1.02303   0.00056   0.00000   0.01703   0.01702  -1.00600
   D14       -3.10162  -0.00027   0.00000   0.00451   0.00453  -3.09709
   D15        1.11466   0.00010   0.00000   0.00751   0.00752   1.12218
   D16        1.01461   0.00061   0.00000   0.01891   0.01890   1.03351
   D17       -1.06398  -0.00023   0.00000   0.00639   0.00640  -1.05758
   D18       -3.13089   0.00014   0.00000   0.00939   0.00939  -3.12150
   D19       -2.91716  -0.00030   0.00000  -0.02665  -0.02665  -2.94382
   D20        0.55585  -0.00017   0.00000  -0.02439  -0.02440   0.53145
   D21       -0.80630  -0.00091   0.00000  -0.02798  -0.02798  -0.83428
   D22        2.66672  -0.00077   0.00000  -0.02572  -0.02573   2.64099
   D23        1.22785   0.00028   0.00000  -0.01454  -0.01453   1.21331
   D24       -1.58232   0.00041   0.00000  -0.01228  -0.01228  -1.59460
   D25        0.09791   0.00022   0.00000   0.01431   0.01432   0.11223
   D26       -3.06461   0.00013   0.00000   0.01054   0.01054  -3.05406
   D27        2.90175   0.00045   0.00000   0.01433   0.01433   2.91608
   D28       -0.26076   0.00036   0.00000   0.01056   0.01055  -0.25022
   D29        3.11205  -0.00005   0.00000   0.00045   0.00056   3.11261
   D30       -0.07558   0.00043   0.00000   0.02031   0.02018  -0.05540
   D31       -0.05087  -0.00011   0.00000  -0.00327  -0.00315  -0.05402
   D32        3.04468   0.00037   0.00000   0.01659   0.01648   3.06116
   D33        3.13605  -0.00004   0.00000   0.00007   0.00020   3.13625
   D34       -0.01219  -0.00012   0.00000  -0.00297  -0.00286  -0.01505
   D35        0.03893  -0.00033   0.00000  -0.01800  -0.01811   0.02082
   D36       -3.10931  -0.00040   0.00000  -0.02104  -0.02117  -3.13048
   D37        3.13610  -0.00008   0.00000  -0.00343  -0.00344   3.13267
   D38       -0.00424  -0.00011   0.00000  -0.00574  -0.00575  -0.00999
   D39        0.00085  -0.00002   0.00000  -0.00057  -0.00058   0.00028
   D40       -3.13949  -0.00006   0.00000  -0.00288  -0.00289   3.14080
   D41       -3.13482   0.00005   0.00000   0.00277   0.00276  -3.13206
   D42        0.01152  -0.00004   0.00000  -0.00146  -0.00149   0.01003
   D43        0.00042   0.00000   0.00000  -0.00006  -0.00006   0.00036
   D44       -3.13642  -0.00009   0.00000  -0.00429  -0.00430  -3.14072
   D45       -0.00102   0.00002   0.00000   0.00091   0.00092  -0.00010
   D46        3.14099  -0.00001   0.00000  -0.00056  -0.00056   3.14043
   D47        3.13942   0.00006   0.00000   0.00306   0.00306  -3.14071
   D48       -0.00176   0.00003   0.00000   0.00159   0.00158  -0.00018
   D49        3.12664   0.00000   0.00000  -0.00042  -0.00043   3.12621
   D50       -0.01475  -0.00011   0.00000  -0.01082  -0.01082  -0.02557
   D51       -0.01378  -0.00004   0.00000  -0.00261  -0.00260  -0.01638
   D52        3.12802  -0.00015   0.00000  -0.01300  -0.01300   3.11502
   D53       -0.00164   0.00001   0.00000   0.00038   0.00038  -0.00125
   D54        3.14145  -0.00001   0.00000  -0.00055  -0.00055   3.14090
   D55        3.13521   0.00011   0.00000   0.00465   0.00463   3.13984
   D56       -0.00489   0.00009   0.00000   0.00372   0.00370  -0.00119
   D57        0.00147  -0.00000   0.00000  -0.00007  -0.00007   0.00140
   D58       -3.13949  -0.00001   0.00000  -0.00022  -0.00022  -3.13972
   D59        3.14157   0.00002   0.00000   0.00087   0.00086  -3.14076
   D60        0.00060   0.00001   0.00000   0.00071   0.00071   0.00131
   D61       -0.00012  -0.00001   0.00000  -0.00058  -0.00057  -0.00069
   D62        3.14104   0.00002   0.00000   0.00094   0.00093  -3.14121
   D63        3.14083  -0.00001   0.00000  -0.00042  -0.00042   3.14042
   D64       -0.00119   0.00003   0.00000   0.00110   0.00109  -0.00010
         Item               Value     Threshold  Converged?
 Maximum Force            0.018624     0.000450     NO 
 RMS     Force            0.002252     0.000300     NO 
 Maximum Displacement     0.109694     0.001800     NO 
 RMS     Displacement     0.026874     0.001200     NO 
 Predicted change in Energy=-7.969346D-04
 GradGradGradGradGradGradGradGradGradGradGradGradGradGradGradGradGradGrad

                          Input orientation:                          
 ---------------------------------------------------------------------
 Center     Atomic      Atomic             Coordinates (Angstroms)
 Number     Number       Type             X           Y           Z
 ---------------------------------------------------------------------
      1          6           0       -1.038291    2.033806    0.400483
      2          6           0        0.321048    1.439939    0.046424
      3          6           0        1.424843    2.476060    0.182690
      4          7           0        2.714024    1.899164   -0.180835
      5          6           0        3.865071    2.564545    0.081245
      6          8           0        3.904167    3.609831    0.727384
      7          7           0        4.988263    1.917115   -0.433297
      8          6           0        6.308267    2.320049   -0.383335
      9          6           0        7.359241    1.543568   -0.953352
     10          6           0        6.690229    3.530933    0.225859
     11          6           0        8.016603    3.900848    0.244028
     12          6           0        9.049416    3.150155   -0.308245
     13          6           0        8.695714    1.962834   -0.908722
     14          1           0       -1.830331    1.286113    0.298734
     15          1           0       -1.281904    2.875079   -0.257756
     16          1           0        0.306443    1.061767   -0.983690
     17          1           0        0.544072    0.588878    0.700537
     18          1           0        1.483828    2.831534    1.215589
     19          1           0        1.205160    3.345345   -0.452029
     20          1           0        2.721089    1.160626   -0.877516
     21          1           0        5.951634    4.173236    0.680202
     22          9           0        8.328530    5.064898    0.836390
     23          7           0        7.137890    0.271899   -1.616913
     24          1           0       10.076201    3.493463   -0.261129
     25          8           0        8.093921   -0.319279   -2.091426
     26          8           0        5.998798   -0.194838   -1.682041
     27          1           0       -1.049449    2.399582    1.433309
     28          1           0        4.825592    1.023082   -0.886674
     29          1           0        9.453191    1.332142   -1.357154
 ---------------------------------------------------------------------
                    Distance matrix (angstroms):
                    1          2          3          4          5
     1  C    0.000000
     2  C    1.525070   0.000000
     3  C    2.511981   1.520025   0.000000
     4  N    3.799464   2.447216   1.458405   0.000000
     5  C    4.942323   3.718340   2.443938   1.355112   0.000000
     6  O    5.197942   4.243922   2.780139   2.273254   1.229490
     7  N    6.085077   4.716008   3.659211   2.288280   1.394804
     8  C    7.393796   6.066801   4.918593   3.624464   2.498964
     9  C    8.520079   7.109602   6.113690   4.722422   3.784443
    10  C    7.874129   6.706036   5.370187   4.317207   2.989371
    11  C    9.246698   8.081874   6.744263   5.683714   4.364336
    12  C   10.174005   8.901407   7.670042   6.458979   5.231833
    13  C    9.821909   8.445161   7.370220   6.026150   4.967615
    14  H    1.093950   2.171579   3.467794   4.610529   5.841172
    15  H    1.095613   2.172926   2.771225   4.114093   5.167466
    16  H    2.160811   1.097434   2.147437   2.672500   4.007027
    17  H    2.163728   1.096316   2.146015   2.683721   3.913543
    18  H    2.768005   2.157670   1.093948   2.081512   2.651101
    19  H    2.734956   2.158861   1.098538   2.107524   2.822970
    20  H    4.065546   2.586867   2.129474   1.015310   2.049123
    21  H    7.315358   6.290953   4.860017   4.049063   2.701922
    22  F    9.854687   8.825199   7.402047   6.525281   5.171506
    23  N    8.603728   7.113392   6.382461   4.927566   4.341810
    24  H   11.229437   9.973694   8.722275   7.533253   6.289535
    25  O    9.754174   8.251231   7.580378   6.124961   5.560586
    26  O    7.669706   6.156049   5.615335   4.174711   3.908473
    27  H    1.095739   2.173160   2.773449   4.125482   5.099784
    28  H    6.087977   4.619022   3.849647   2.392582   2.058051
    29  H   10.660807   9.240005   8.254334   6.864519   5.900415
                    6          7          8          9         10
     6  O    0.000000
     7  N    2.321149   0.000000
     8  C    2.945663   1.381037   0.000000
     9  C    4.362551   2.455917   1.425619   0.000000
    10  C    2.831942   2.436305   1.408280   2.405771   0.000000
    11  C    4.150959   3.683043   2.410586   2.724448   1.377111
    12  C    5.268532   4.246056   2.865068   2.419500   2.448678
    13  C    5.324318   3.738089   2.470533   1.401405   2.787145
    14  H    6.202247   6.886745   8.232316   9.278051   8.811610
    15  H    5.329699   6.345353   7.611473   8.770755   8.013671
    16  H    4.729062   4.791033   6.161623   7.069301   6.950721
    17  H    4.518530   4.775001   6.115364   7.077663   6.830539
    18  H    2.588847   3.979454   5.108168   6.394031   5.345590
    19  H    2.957297   4.043768   5.205541   6.431985   5.529915
    20  H    3.158161   2.430984   3.802147   4.654551   4.752880
    21  H    2.124094   2.694076   2.166240   3.400736   1.079121
    22  F    4.658765   4.762144   3.619860   4.067243   2.325903
    23  N    5.205237   2.954417   2.530793   1.451362   3.770612
    24  H    6.251777   5.329318   3.948312   3.415134   3.421019
    25  O    6.398253   4.170847   3.615548   2.303294   4.707897
    26  O    4.966721   2.653468   2.847291   2.324618   4.242585
    27  H    5.147945   6.338057   7.579083   8.782652   7.914576
    28  H    3.185196   1.015533   2.033174   2.587416   3.317215
    29  H    6.350184   4.596878   3.437271   2.142985   3.869699
                   11         12         13         14         15
    11  C    0.000000
    12  C    1.391133   0.000000
    13  C    2.354978   1.376738   0.000000
    14  H   10.188324  11.054953  10.616662   0.000000
    15  H    9.368363  10.335105  10.040358   1.770669   0.000000
    16  H    8.307482   9.014277   8.437856   2.502148   2.517524
    17  H    8.186347   8.939724   8.421801   2.507064   3.078835
    18  H    6.690629   7.724100   7.568265   3.769960   3.133993
    19  H    6.869413   7.848002   7.630747   3.744101   2.538578
    20  H    6.067055   6.658079   6.028321   4.702631   4.398568
    21  H    2.128036   3.408809   3.865298   8.309030   7.408715
    22  F    1.342833   2.344378   3.578133  10.852223   9.917303
    23  N    4.171872   3.694713   2.405746   9.226447   8.917218
    24  H    2.159419   1.083683   2.160544  12.122349  11.374927
    25  O    4.823878   4.016177   2.639883  10.333486  10.073349
    26  O    4.955394   4.731022   3.539340   8.210478   8.028798
    27  H    9.266148  10.275381  10.032151   1.771115   1.771957
    28  H    4.443261   4.764421   3.982644   6.765774   6.413029
    29  H    3.350496   2.137385   1.082883  11.404471  10.900990
                   16         17         18         19         20
    16  H    0.000000
    17  H    1.765421   0.000000
    18  H    3.058617   2.485544   0.000000
    19  H    2.510993   3.059994   1.767090   0.000000
    20  H    2.419001   2.748918   2.950227   2.692968   0.000000
    21  H    6.657174   6.487663   4.695540   4.949381   4.683879
    22  F    9.148313   8.980590   7.209830   7.440382   7.044445
    23  N    6.906051   6.996391   6.822259   6.782353   4.565597
    24  H   10.093732  10.011139   8.743439   8.874331   7.740784
    25  O    7.986187   8.100619   8.034756   7.973213   5.703597
    26  O    5.871087   6.003743   6.159557   6.084800   3.637021
    27  H    3.077349   2.520895   2.579046   3.087431   4.592590
    28  H    4.520357   4.586850   4.342510   4.323118   2.109013
    29  H    9.158361   9.173818   8.507522   8.538281   6.751345
                   21         22         23         24         25
    21  H    0.000000
    22  F    2.543440   0.000000
    23  N    4.680211   5.514450   0.000000
    24  H    4.284886   2.593898   4.566213   0.000000
    25  O    5.696841   6.133229   1.220102   4.670806   0.000000
    26  O    4.966134   6.279727   1.232727   5.678713   2.138369
    27  H    7.261418   9.767636   8.992409  11.306980  10.169424
    28  H    3.694122   5.619234   2.538552   5.836350   3.733006
    29  H    4.948083   4.473249   2.559728   2.502144   2.261407
                   26         27         28         29
    26  O    0.000000
    27  H    8.131065   0.000000
    28  H    1.868783   6.464765   0.000000
    29  H    3.790785  10.919320   4.661710   0.000000
 Stoichiometry    C10H12FN3O3
 Framework group  C1[X(C10H12FN3O3)]
 Deg. of freedom    81
 Full point group                 C1      NOp   1
 Largest Abelian subgroup         C1      NOp   1
 Largest concise Abelian subgroup C1      NOp   1
[...]
 13508,0.00016838,0.00073035,0.00056362,-0.00031659,0.00001328,-0.00019
 231,0.00253095,0.01483081,0.00582306,-0.06205367,0.63874440,-0.0000316
 0,-0.00005057,-0.00003696,-0.00001149,0.00010787,0.00012537,0.00032398
 ,-0.00022194,-0.00012094,-0.00193154,-0.00020657,-0.00000769,0.0042774
 8,-0.00357927,-0.00266984,-0.00027250,0.00122577,0.00089162,-0.0098164
 5,-0.00255364,-0.00163612,0.01064601,-0.00959318,-0.01039533,0.0063157
 6,-0.01610404,-0.08017496,0.00241847,-0.00280974,0.00565900,0.00518514
 ,-0.00501000,-0.00331759,-0.00259218,0.00687965,0.01065758,-0.01521410
 ,-0.00940762,-0.01010702,-0.00003314,0.00000606,0.00001029,-0.00000238
 ,0.00000295,0.00000118,0.00000102,-0.00000221,-0.00001737,-0.00000406,
 -0.00001826,-0.00000375,-0.00016572,0.00001942,0.00006588,-0.00011273,
 0.00001951,0.00002050,0.00002205,0.00024506,0.00008171,-0.00030119,-0.
 00036067,0.00052096,0.00064879,0.00529501,0.00084513,0.09768318,0.1095
 6596,0.29163919,-0.00000012,-0.00000112,-0.00000099,-0.00000049,0.0000
 0168,0.00000199,0.00000695,-0.00000636,-0.00000858,-0.00002910,-0.0000
 2064,-0.00001473,0.00004091,0.00016178,0.00008112,-0.00018768,-0.00013
 501,0.00003161,0.00017826,-0.00008861,-0.00006859,0.00010951,0.0009159
 8,0.00020546,0.00176676,-0.00012877,0.00025442,-0.00147376,0.00309592,
 0.00127776,-0.01614854,-0.00956832,-0.00203543,-0.32786195,-0.09366199
 ,-0.01441104,0.00130715,-0.00000923,0.00005881,-0.00000088,0.,0.000000
 17,-0.00000015,0.00000038,0.00000001,-0.00000033,-0.00000022,-0.000000
 49,-0.00000016,-0.00000051,-0.00000023,-0.00000059,0.00000089,0.000000
 88,-0.00000051,0.00000135,0.00000113,-0.00000169,0.00000054,0.00000125
 ,-0.00049594,-0.00049135,-0.00016028,0.00142732,-0.00090545,-0.0006148
 3,0.00016622,0.00036662,0.00015381,0.34074506,-0.00000018,-0.00000017,
 -0.00000039,-0.00000149,0.00000127,0.00000165,-0.00000009,0.00000101,-
 0.00000492,-0.00002221,0.00002767,0.00001689,-0.00000198,-0.00019370,-
 0.00015460,0.00020443,0.00015429,-0.00002074,-0.00014099,0.00015368,0.
 00028856,0.00012705,-0.00110233,-0.00007054,0.00060944,-0.00288729,-0.
 00332263,0.00275139,-0.00234390,-0.00231230,0.01887109,0.00925096,0.00
 079482,-0.09397966,-0.08644793,-0.01303976,-0.02755336,-0.00501221,-0.
 00099090,-0.00000023,0.00000005,0.00000006,0.00000010,0.00000008,-0.00
 000003,0.00000043,0.00000017,0.00000016,0.00000020,-0.00000008,0.00000
 003,0.00000089,-0.00000023,0.00000260,-0.00000255,-0.00000083,0.000000
 13,0.00000213,0.00000603,-0.00000101,0.00074544,0.00051452,0.00010821,
 -0.00099673,0.00197481,0.00192863,-0.00151427,0.00039855,-0.00027855,0
 .10057997,0.08558149,0.00000091,0.00000244,0.00000062,0.00000108,-0.00
 000464,-0.00000386,-0.00001832,-0.00000705,0.00002454,0.00011233,0.000
 00384,0.00005928,-0.00016947,0.00015808,0.00004113,-0.00009912,-0.0000
 2622,-0.00001085,0.00008106,0.00037705,-0.00040256,-0.00004321,-0.0001
 0238,-0.00092889,0.00079881,-0.00379960,0.00597007,0.00081580,-0.00260
 377,0.00366012,0.00754290,0.00279354,0.00388581,-0.01436088,-0.0131139
 5,-0.03630624,-0.00932755,-0.00274735,0.00221479,0.00000110,-0.0000001
 7,-0.00000040,-0.00000014,-0.00000002,0.00000010,-0.00000027,-0.000000
 11,-0.00000046,-0.00000004,0.00000100,0.00000028,-0.00000133,-0.000000
 76,-0.00000863,0.00000972,0.00000215,-0.00000297,0.00000464,-0.0000198
 6,0.00000137,0.00036587,0.00012887,0.00030470,-0.00068574,0.00164349,-
 0.00295963,-0.00048628,0.00026240,0.00148883,0.01556486,0.01523347,0.0
 2816965,-0.00004265,-0.00006498,-0.00005769,-0.00002746,0.00014640,0.0
 0015214,0.00042153,-0.00022675,-0.00026202,-0.00228089,-0.00034016,0.0
 0006548,0.00692281,-0.00281808,-0.00375382,-0.00113977,0.00200394,0.00
 225146,-0.00994858,0.00459591,0.00275541,0.00827748,-0.00411010,-0.000
 83413,0.00420600,0.04118288,0.00968011,0.00024369,-0.00085698,-0.00069
 729,0.00358698,-0.00410131,-0.00195920,-0.00027868,0.00623246,0.002111
 18,-0.01353192,-0.01201335,-0.00355428,-0.00004418,0.00000707,0.000015
 24,-0.00000368,0.00000719,0.00000189,0.00000047,-0.00000903,-0.0000167
 0,0.00000197,-0.00001677,-0.00000972,-0.00018274,0.00002001,0.00007379
 ,-0.00017162,0.00004169,0.00004777,0.00013641,0.00022935,0.00018379,0.
 00003518,0.00007941,0.00006954,0.00070014,0.00283714,0.00105755,-0.354
 95355,0.20012838,0.00897885,0.00002533,0.00003854,0.00022955,0.4915294
 4,0.00005412,0.00007861,0.00007137,0.00003338,-0.00018352,-0.00018852,
 -0.00050544,0.00028737,0.00033156,0.00295091,0.00037060,-0.00011916,-0
 .00741219,0.00408125,0.00467700,0.00123316,-0.00200618,-0.00229471,0.0
 1206417,-0.00164744,-0.00156501,-0.01940639,-0.00004884,-0.00133599,0.
 04086819,-0.06229974,-0.01794230,0.00143745,-0.00200047,0.00026915,-0.
 00195065,0.00510751,0.00176977,0.00348998,-0.00673209,-0.00236836,0.00
 828269,0.00078898,0.00203158,0.00005445,-0.00000866,-0.00001866,0.0000
 0261,-0.00000668,-0.00000209,0.00000042,0.00000970,0.00002186,-0.00000
 083,0.00002478,0.00000983,0.00021689,-0.00002320,-0.00009195,0.0002090
 8,-0.00004714,-0.00005754,-0.00010716,-0.00029672,-0.00022514,-0.00052
 701,-0.00066627,-0.00024569,-0.00106434,-0.00551965,-0.00190344,0.1959
 1116,-0.28885486,-0.02639171,-0.00014495,-0.00019185,-0.00006906,-0.26
 308249,0.32168409,0.00000582,0.00001145,0.00000659,0.00000408,-0.00002
 138,-0.00002597,-0.00006309,0.00002082,0.00006004,0.00037318,-0.000012
 70,0.00001916,-0.00082714,0.00112376,-0.00004644,0.00007841,-0.0002820
 4,-0.00006783,0.00150276,0.00116645,0.00007655,-0.00333082,-0.00178021
 ,0.00498696,0.00840790,-0.01731353,0.01496974,-0.00021554,-0.00022277,
 -0.00145816,-0.00019074,0.00121307,0.00035761,0.00060994,-0.00094191,-
 0.00123385,0.00138397,-0.00154208,0.00151096,0.00000670,-0.00000107,-0
 .00000220,0.00000019,-0.00000082,-0.00000013,0.00000014,0.00000029,0.0
 0000323,0.00000062,0.00000349,0.00000094,0.00002203,-0.00000374,-0.000
 01729,0.00002727,0.00000091,-0.00000687,-0.00000152,-0.00005588,-0.000
 01431,-0.00007589,-0.00003111,-0.00030889,-0.00023655,-0.00141350,-0.0
 0027490,0.00823194,-0.02310985,-0.08624223,-0.00003601,-0.00006613,-0.
 00004489,0.00839123,0.03516562,0.04104129,0.00001311,0.00001696,0.0000
 1329,-0.00001411,-0.00004759,-0.00004177,-0.00008543,-0.00004864,-0.00
 005772,0.00085985,0.00000183,0.00003927,0.00093469,0.00443629,0.000879
 05,-0.00084739,0.00037395,0.00119433,0.00345456,0.01457391,0.00577611,
 -0.02026760,0.00112214,-0.00039202,-0.02216097,-0.04479318,-0.02258968
 ,0.00173723,0.00177015,0.00208836,-0.00675962,0.00533847,0.00249586,0.
 00327708,-0.00973371,-0.00266406,0.01114412,0.00553214,0.00200293,0.00
 001131,-0.00000168,-0.00000356,-0.00000121,0.00000218,0.00000008,0.000
 00169,0.00000108,0.00000997,0.00000129,0.00001495,-0.00000049,0.000081
 34,0.00000288,-0.00001393,0.00008165,0.00002527,-0.00000412,0.00010829
 ,-0.00013226,-0.00005044,-0.00007552,-0.00014838,-0.00003041,-0.000362
 91,-0.00420477,-0.00172097,-0.42146777,-0.12055815,-0.10283215,-0.0000
 2830,-0.00029286,-0.00025787,-0.14061265,0.02860283,-0.02513731,0.5831
 4980,0.00003761,0.00005288,0.00004847,0.00003211,-0.00011993,-0.000123
 65,-0.00034459,0.00023667,0.00029217,0.00185316,0.00022588,-0.00008456
 ,-0.00605879,0.00068283,0.00231376,0.00153046,-0.00176915,-0.00227598,
 0.01545249,-0.00625143,-0.00504156,-0.00638396,0.00371989,0.00071992,-
 0.04763916,-0.02014291,-0.01968676,-0.00033570,0.00005704,0.00075777,-
 0.00295816,0.00442905,0.00157250,-0.00048770,-0.00583596,-0.00095183,0
 .00852906,-0.00118825,-0.00269156,0.00003579,-0.00000591,-0.00001240,0
 .00000024,-0.00000311,-0.00000125,0.00000266,0.00000492,0.00001520,-0.
 00000079,0.00001789,0.00000408,0.00011658,-0.00002273,-0.00006202,0.00
 012290,-0.00004428,-0.00004697,-0.00010372,-0.00019050,-0.00017760,-0.
 00006999,-0.00006226,0.00000220,-0.00060360,-0.00401317,-0.00142555,-0
 .12492971,-0.17414092,-0.05281872,-0.00003045,-0.00080999,-0.00005682,
 0.03814057,0.04214711,0.01084255,0.12164636,0.17440589,0.00001575,0.00
 002482,0.00001761,0.00001216,-0.00005224,-0.00005357,-0.00014287,0.000
 10994,0.00009175,0.00082799,0.00015176,-0.00002941,-0.00231406,-0.0000
 2359,0.00178724,0.00044388,-0.00050834,-0.00104493,0.00679957,-0.00398
 013,-0.00090365,-0.00265617,0.00273450,0.00111476,-0.02275889,-0.01735
 148,0.00951474,-0.00072648,-0.00021138,-0.00056454,-0.00080296,0.00175
 671,0.00117049,-0.00042644,-0.00179701,-0.00147259,0.00431180,-0.00258
 678,0.00349937,0.00001485,-0.00000264,-0.00000500,0.00000104,-0.000002
 27,-0.00000088,-0.00000045,-0.00000016,0.00000900,0.00000211,0.0000067
 4,0.00000101,0.00006449,-0.00000937,-0.00001956,0.00003916,-0.00002471
 ,-0.00001295,-0.00004571,-0.00007618,-0.00006604,0.00000812,0.00002023
 ,-0.00000289,-0.00026346,-0.00180998,-0.00061258,-0.10491451,-0.057410
 52,-0.11497870,-0.00002890,-0.00015652,-0.00070395,-0.02258172,0.01230
 676,0.02571221,0.14280598,0.07399278,0.08133553,-0.04827817,0.00221541
 ,-0.01366630,0.00062815,-0.00602458,0.02936352,0.00134099,-0.00002088,
 0.00125073,0.00001993,0.00017907,-0.00018289,0.00010776,0.00007318,-0.
 00010452,-0.00002843,-0.00005645,-0.00003676,-0.00000703,0.00000197,0.
 00002202,0.00001940,0.00000018,0.00000420,-0.00000023,0.00000438,0.000
 00385,-0.00000352,-0.00000604,-0.00000054,0.00000391,0.00000239,-0.000
 00175,-0.00000228,0.00000131,0.00000159,-0.00000123,-0.00000164,-0.000
 00263,-0.00045614,0.00613199,-0.02445738,-0.00128223,0.00025192,-0.004
 71637,-0.00485397,0.00156820,0.00259704,0.00125749,-0.00023040,-0.0008
 2486,-0.00013029,0.00005810,-0.00041515,-0.00003878,-0.00010961,-0.000
 08886,0.00009390,-0.00009236,-0.00002577,0.00000047,0.00000087,0.00000
 133,-0.00000021,-0.00000115,-0.00000012,0.00000136,-0.00000497,0.00000
 078,-0.00000007,-0.00000004,0.00000022,-0.00000232,0.00000222,-0.00000
 050,0.00000037,0.00000106,-0.00000096,0.05161103,0.00191477,-0.0579453
 0,0.04804596,-0.00057806,0.00125523,-0.01072632,-0.00040596,0.00011679
 ,0.00017778,-0.00009316,-0.00010884,0.00004762,-0.00002780,-0.00001118
 ,0.00003958,0.00002803,0.00000808,-0.00000498,0.00001289,0.00000156,-0
 .00000799,-0.00000513,-0.00000033,-0.00000538,0.00000081,-0.00000287,0
 .00000094,0.00000106,0.00000172,0.00000221,-0.00000168,-0.00000047,-0.
 00000066,0.00000112,-0.00000062,0.00000032,0.00000042,0.00000040,-0.00
 000044,0.00032669,0.00316764,-0.01726872,0.00157648,-0.00399333,0.0318
 5897,0.00205911,0.00054792,-0.00104135,-0.00078323,0.00033847,-0.00012
 208,-0.00009495,0.00003889,0.00025177,0.00003288,-0.00000975,0.0000170
 9,-0.00002146,0.00002548,-0.00000441,-0.00000026,-0.00000042,0.0000001
 4,0.00000037,0.00000005,-0.00000008,0.00000048,0.00000424,0.00000156,-
 0.00000001,0.,-0.00000010,0.00000115,-0.00000182,-0.00000046,-0.000000
 57,-0.00000142,-0.00000090,-0.00394321,0.05656790,-0.01241622,0.047325
 74,-0.30980189,-0.00053559,0.00235801,-0.01417314,-0.00085291,-0.00010
 882,0.00042008,0.00007437,0.00000845,0.00042281,-0.00009647,-0.0000910
 6,-0.00002504,0.00009370,0.00005720,0.00004836,0.00009350,0.00001638,-
 0.00001658,-0.00003471,-0.00001659,-0.00002319,0.00000624,-0.00000807,
 -0.00000090,0.00001160,0.00001196,0.00000529,-0.00001119,-0.00000457,0
 .00000074,0.00000577,-0.00000392,-0.00000164,0.00000358,0.00000162,0.0
 0000119,-0.00041978,0.00221452,-0.01062183,-0.00037745,0.00067595,-0.0
 0295194,0.00298433,-0.00125329,-0.00000510,-0.00022772,-0.00025929,0.0
 0065187,0.00044718,0.00034192,0.00023006,0.00010225,-0.00003643,-0.000
 03334,-0.00013239,0.00001891,0.00000914,-0.00000098,-0.00000167,-0.000
 00191,0.00000202,0.00000443,0.00000110,-0.00000500,0.00001684,0.000001
 88,0.00000039,0.00000017,-0.00000046,0.00000768,-0.00000824,-0.0000006
 4,0.00000049,-0.00000469,-0.00000048,0.01128085,-0.05126222,0.33585813
 ,0.00002231,0.00002947,0.00002390,-0.00000644,-0.00005945,-0.00005360,
 -0.00000436,-0.00001269,-0.00015796,-0.00191643,-0.00013285,0.00008261
 ,0.01331411,0.02285392,0.01072779,-0.00474185,0.00290814,0.00536188,-0
 .08359557,-0.06132383,-0.02700274,-0.00065700,-0.03097696,-0.01834107,
 0.00097588,0.00238669,0.00072464,-0.00670748,-0.00063480,0.00001874,0.
 00242597,-0.00149666,0.00001884,-0.00079026,0.00153712,0.00048706,-0.0
 0129161,-0.00123460,-0.00041696,0.00001419,-0.00000210,-0.00000464,0.0
 0000006,-0.00000428,-0.00000095,0.00000119,0.00000388,0.00000466,0.000
 00064,0.00000373,0.00000594,0.00005238,-0.00008264,-0.00009492,0.00006
 919,-0.00000978,-0.00006053,-0.00222417,-0.00019797,0.00026784,-0.0000
 0862,0.00016919,-0.00010258,-0.00067937,-0.00022175,-0.00008555,-0.014
 45049,-0.00234528,-0.00353582,-0.00001715,0.00008876,0.00004676,0.0043
 1874,-0.00109454,0.00103455,0.00677935,0.00245014,0.00207892,0.0000000
 3,-0.00000083,-0.00000418,0.08911206,-0.00005610,-0.00007991,-0.000075
 35,-0.00009392,0.00014855,0.00017682,0.00066822,-0.00047325,-0.0004368
 5,-0.00253236,0.00058076,0.00139478,0.00315034,-0.00621772,-0.00293930
 ,-0.00149831,0.00427588,0.00130531,-0.05941482,-0.31738345,-0.18955389
 ,-0.01367831,-0.00680643,0.00018532,0.00054372,-0.00389751,-0.00169581
 ,0.00250560,0.00439774,0.00011946,-0.00315092,0.00009964,-0.00054483,0
 .00165822,-0.00178567,-0.00065548,0.00142291,0.00092685,0.00077589,-0.
 00004917,0.00001021,0.00001646,0.00000009,0.00000544,0.00000148,0.0000
 0845,-0.00000365,-0.00001477,0.00000502,-0.00002249,-0.00000448,-0.000
 11878,0.00005151,0.00018425,-0.00012025,0.00008221,0.00006118,0.000065
 98,0.00089956,0.00064174,0.00016920,-0.00009683,0.00011189,0.00024819,
 0.00009752,0.00015996,0.01063981,0.00796604,0.00513703,-0.00002032,-0.
 00003181,-0.00007543,-0.00401249,0.00030240,-0.00154530,-0.00383941,-0
 .01202496,-0.00523318,-0.00000094,0.00000190,0.00000643,0.06737824,0.3
 2887406,-0.00005376,-0.00007895,-0.00006804,-0.00003550,0.00017252,0.0
 0017993,0.00063000,0.00044109,-0.00112132,-0.00409374,-0.00020972,-0.0
 0006401,0.00405140,-0.01119492,-0.01473462,0.00206623,-0.00107512,0.00
 441106,-0.03256976,-0.18191346,-0.12095643,-0.00290985,0.00331240,-0.0
 0033574,0.00011809,-0.00098411,-0.00084805,0.00261609,0.00047245,0.002
 35417,-0.00068468,-0.00006566,0.00131579,0.00010562,-0.00041887,-0.000
 11397,0.00051358,-0.00006415,-0.00064335,-0.00005031,0.00000434,0.0000
 2114,-0.00000313,0.00000429,0.00000179,0.00000939,0.00000102,-0.000021
 87,0.00000470,-0.00001754,-0.00000747,-0.00009833,-0.00003366,0.000032
 91,-0.00037324,0.00017192,0.00017607,0.00047474,0.00006072,0.00146397,
 -0.00015446,-0.00006510,-0.00035292,0.00034500,0.00055039,-0.00021576,
 0.00328425,0.00369081,0.00100429,0.00002912,-0.00002968,0.00002355,-0.
 00152429,-0.00052557,0.00051476,-0.00076505,-0.00479633,-0.00372417,-0
 .00000077,0.00000211,0.00000753,0.02895299,0.19250047,0.13174569,-0.00
 000446,-0.00000694,-0.00000628,-0.00000845,0.00001458,0.00001718,0.000
 01978,-0.00004449,-0.00004055,-0.00020509,0.00005299,0.00010747,0.0000
 7244,-0.00035604,-0.00052671,0.00001896,0.00013655,0.00012791,-0.00080
 926,0.00103236,0.00068355,-0.00296265,-0.00354644,-0.00073929,-0.01639
 384,0.01725738,0.00698495,0.00024849,-0.00038885,-0.00019115,-0.000160
 83,-0.00195824,-0.00021510,0.01128977,-0.00678090,-0.00265655,-0.22252
 702,0.13917613,0.05824864,-0.00000404,0.00000083,0.00000151,-0.0000000
 8,0.00000067,0.00000010,0.00000005,-0.00000027,-0.00000163,0.00000029,
 -0.00000156,-0.00000031,-0.00000843,0.00000226,0.00000674,-0.00000677,
 0.00000496,0.00000323,0.00001005,0.00001498,0.00001083,0.00003874,0.00
 009123,0.00002849,0.00054179,-0.00100652,-0.00038437,-0.00301380,0.003
 02557,0.00020173,0.00047395,0.00048678,-0.00012540,0.00281452,-0.00011
 770,0.00003438,0.00104776,-0.00000484,0.00023774,0.00000009,0.00000006
 ,0.00000067,0.00000472,0.00012211,0.00011568,0.22952331,-0.00000327,-0
 .00000457,-0.00000415,-0.00000532,0.00001031,0.00001068,0.00001813,-0.
 00003363,-0.00002071,-0.00016270,-0.00000331,0.00006680,0.00010486,-0.
 00018159,-0.00034610,-0.00004117,0.00010867,0.00009925,-0.00087505,0.0
 0056388,0.00026932,-0.00195683,-0.00052240,-0.00157073,-0.00676219,0.0
 1137135,0.00266556,-0.00063655,-0.00047321,0.00042376,-0.00216462,-0.0
 0205260,-0.00337556,0.02019534,-0.01188530,-0.00737153,0.14051614,-0.1
 7209014,-0.05493376,-0.00000282,0.00000061,0.00000101,-0.00000003,0.00
 000030,0.00000012,-0.00000005,-0.00000034,-0.00000090,0.00000017,-0.00
 000088,-0.00000021,-0.00000841,0.00000209,0.00000499,-0.00000509,0.000
 00403,0.00000219,0.00000312,0.00001270,0.00000616,0.00010969,0.0000452
 5,0.00002892,0.00100485,-0.00148616,-0.00034510,0.00146829,-0.00231820
 ,0.00090085,0.00008821,0.00095776,0.00202097,-0.00403961,-0.00434725,-
 0.00120392,0.00033982,0.00064683,0.00013313,0.00000002,0.00000007,0.00
 000031,0.00002174,0.00010340,0.00008834,-0.14720666,0.18157233,-0.0000
 0086,-0.00000074,0.,-0.00000102,0.00000083,0.00000109,-0.00001258,0.00
 001360,-0.00002179,0.00001803,0.00006270,-0.00001287,-0.00016854,-0.00
 006438,0.00020528,0.00002164,-0.00004484,-0.00003576,0.00013213,0.0000
 2596,0.00060351,-0.00067104,-0.00097408,0.00344714,-0.00161274,-0.0002
 1938,0.00516284,-0.00045452,0.00028232,-0.00146355,-0.00041344,-0.0033
 3686,0.00748916,0.00669291,-0.00626000,0.00403700,0.05945730,-0.054186
 19,-0.06241712,-0.00000009,-0.00000007,0.00000028,0.00000014,0.,-0.000
 00004,0.00000003,0.00000017,-0.00000010,-0.00000012,-0.00000012,-0.000
 00008,0.00000634,-0.00000148,-0.00000145,-0.00000169,-0.00000046,0.000
 00101,0.00000499,-0.00000806,0.00000819,0.00002875,0.00003053,-0.00001
 304,0.00033072,-0.00036320,-0.00080043,0.00039139,0.00212846,-0.003304
 89,-0.00028269,0.00207332,-0.00447107,-0.00082183,-0.00130138,0.000484
 59,-0.00074418,-0.00030316,-0.00005778,0.00000003,0.00000006,-0.000000
 09,0.00002438,-0.00000382,-0.00004492,-0.06192345,0.06245028,0.0512048
 7\\0.00000079,0.00000508,0.00000143,-0.00000340,0.00000727,0.00000528,
 0.00000442,0.00000336,-0.00000432,0.00000887,0.00000279,0.00000271,-0.
 00000976,-0.00000488,-0.00000523,-0.00000349,0.00000517,-0.00000165,0.
 00000029,-0.00000178,0.00000307,-0.00000647,0.00000854,-0.00000727,0.0
 0000270,-0.00002090,0.00000154,0.00000051,-0.00000297,-0.00000539,0.00
 000290,0.00000308,0.00000193,0.00000157,-0.00000366,-0.00000526,0.0000
 0013,0.00000003,0.00000149,-0.00000007,0.00000611,0.00000173,0.0000007
 6,0.00000634,-0.00000201,0.00000037,-0.00000124,0.00000010,0.00000041,
 0.00000334,0.00000546,-0.00000076,0.00000876,0.00000088,-0.00000090,0.
 00000557,-0.00000126,-0.00000093,0.00000051,0.00000507,0.00000339,0.00
 000164,-0.00000743,0.00000120,-0.00000543,-0.00001393,-0.00002303,0.00
 001525,0.00000558,0.00000128,-0.00000649,-0.00000495,0.00000611,-0.000
 02246,0.00000413,0.00001437,-0.00001720,0.00000871,-0.00000106,0.00000
 973,0.00000063,0.00000079,-0.00000055,0.00000516,-0.00000099,-0.000005
 01,0.00000382\\\@


 IF AT FIRST YOU DON'T SUCCEED, TRY, TRY AGAIN.
 THEN GIVE UP;
 THERE'S NO USE BEING A DAMN FOOL ABOUT IT.

                                 -- W. C. FIELDS
 Job cpu time:       0 days  2 hours 40 minutes 53.4 seconds.
 File lengths (MBytes):  RWF=    459 Int=      0 D2E=      0 Chk=     19 Scr=      1
 Normal termination of Gaussian 09 at Mon Feb  4 20:35:16 2019.
WARNING: pbs_rusage is deprecated and values produced may not be accurate


=============================================================================
                                     Resource usage:
                                       CPU time:              12:41:10
   JobId:    5375073.r-man2            Elapsed time:          03:11:43
   Project:             q95            Requested time:        34:00:00
   Service Units:     12.78 
                                       Max physical memory:      607MB
                                       Max virtual memory:      1356MB
                                       Requested memory:           0MB

                                       Number of cpus:               4

                                       Max jobfs disk use:       0.4GB
                                       Requested jobfs:         16.0GB
=============================================================================

