 Entering Gaussian System, Link 0=/apps/gaussian/g09e01/g09/g09
 AtFile(1): /home/507/hio507/Basis/6-31pGd.gbs
 Initial command:
 /apps/gaussian/g09e01/g09/l1.exe "/jobfs/local/1827609.r-man2/Gau-27226.inp" -scrdir="/jobfs/local/1827609.r-man2/"
 Entering Link 1 = /apps/gaussian/g09e01/g09/l1.exe PID=     27227.
  
 Copyright (c) 1988,1990,1992,1993,1995,1998,2003,2009,2015,
            Gaussian, Inc.  All Rights Reserved.
  
 This is part of the Gaussian(R) 09 program.  It is based on
 the Gaussian(R) 03 system (copyright 2003, Gaussian, Inc.),
 the Gaussian(R) 98 system (copyright 1998, Gaussian, Inc.),
 the Gaussian(R) 94 system (copyright 1995, Gaussian, Inc.),
 the Gaussian 92(TM) system (copyright 1992, Gaussian, Inc.),
 the Gaussian 90(TM) system (copyright 1990, Gaussian, Inc.),
 the Gaussian 88(TM) system (copyright 1988, Gaussian, Inc.),
 the Gaussian 86(TM) system (copyright 1986, Carnegie Mellon
 University), and the Gaussian 82(TM) system (copyright 1983,
 Carnegie Mellon University). Gaussian is a federally registered
 trademark of Gaussian, Inc.
  
 This software contains proprietary and confidential information,
 including trade secrets, belonging to Gaussian, Inc.
  
 This software is provided under written license and may be
 used, copied, transmitted, or stored only in accord with that
 written license.
  
 The following legend is applicable only to US Government
 contracts under FAR:
  
                    RESTRICTED RIGHTS LEGEND
  
 Use, reproduction and disclosure by the US Government is
 subject to restrictions as set forth in subparagraphs (a)
 and (c) of the Commercial Computer Software - Restricted
 Rights clause in FAR 52.227-19.
  
 Gaussian, Inc.
 340 Quinnipiac St., Bldg. 40, Wallingford CT 06492
  
  
 ---------------------------------------------------------------
 Warning -- This program may not be used in any manner that
 competes with the business of Gaussian, Inc. or will provide
 assistance to any competitor of Gaussian, Inc.  The licensee
 of this program is prohibited from giving any competitor of
 Gaussian, Inc. access to this program.  By using this program,
 the user acknowledges that Gaussian, Inc. is engaged in the
 business of creating and licensing software in the field of
 computational chemistry and represents and warrants to the
 licensee that it is not a competitor of Gaussian, Inc. and that
 it will not use this program in any manner prohibited above.
 ---------------------------------------------------------------
  

 Cite this work as:
 Gaussian 09, Revision E.01,
 M. J. Frisch, G. W. Trucks, H. B. Schlegel, G. E. Scuseria, 
 M. A. Robb, J. R. Cheeseman, G. Scalmani, V. Barone, B. Mennucci, 
 G. A. Petersson, H. Nakatsuji, M. Caricato, X. Li, H. P. Hratchian, 
 A. F. Izmaylov, J. Bloino, G. Zheng, J. L. Sonnenberg, M. Hada, 
 M. Ehara, K. Toyota, R. Fukuda, J. Hasegawa, M. Ishida, T. Nakajima, 
 Y. Honda, O. Kitao, H. Nakai, T. Vreven, J. A. Montgomery, Jr., 
 J. E. Peralta, F. Ogliaro, M. Bearpark, J. J. Heyd, E. Brothers, 
 K. N. Kudin, V. N. Staroverov, T. Keith, R. Kobayashi, J. Normand, 
 K. Raghavachari, A. Rendell, J. C. Burant, S. S. Iyengar, J. Tomasi, 
 M. Cossi, N. Rega, J. M. Millam, M. Klene, J. E. Knox, J. B. Cross, 
 V. Bakken, C. Adamo, J. Jaramillo, R. Gomperts, R. E. Stratmann, 
 O. Yazyev, A. J. Austin, R. Cammi, C. Pomelli, J. W. Ochterski, 
 R. L. Martin, K. Morokuma, V. G. Zakrzewski, G. A. Voth, 
 P. Salvador, J. J. Dannenberg, S. Dapprich, A. D. Daniels, 
 O. Farkas, J. B. Foresman, J. V. Ortiz, J. Cioslowski, 
 and D. J. Fox, Gaussian, Inc., Wallingford CT, 2013.
 
 ******************************************
 Gaussian 09:  ES64L-G09RevE.01 30-Nov-2015
                30-Oct-2018 
 ******************************************
 %chk=4SulfOxyCf3.M062X_6-31pGd_opt.chk
 %mem=196608000
 %nproc=4
 Will use up to    4 processors via shared memory.
 ----------------------------------------------------------------------
 # M062X/Gen 6D SCF=Tight INT(grid=ultrafine) OPT IOP(2/17=4) maxdisk=2
 684354560
 ----------------------------------------------------------------------
 1/14=-1,18=20,19=15,26=4,38=1/1,3;
 2/9=110,12=2,17=4,18=5,40=1/2;
 3/5=7,8=2,11=2,16=1,25=1,30=1,71=1,74=-55,75=-5/1,2,3;
 4//1;
 5/5=2,32=2,38=5/2;
 6/7=2,8=2,9=2,10=2,28=1/1;
 7//1,2,3,16;
 1/14=-1,18=20,19=15,26=4/3(2);
 2/9=110,17=4/2;
 99//99;
 2/9=110,17=4/2;
 3/5=7,6=1,8=2,11=2,16=1,25=1,30=1,71=1,74=-55,75=-5,82=7/1,2,3;
 4/5=5,16=3,69=1/1;
 5/5=2,32=2,38=5/2;
 7//1,2,3,16;
 1/14=-1,18=20,19=15,26=4/3(-5);
 2/9=110,17=4/2;
 6/7=2,8=2,9=2,10=2,19=2,28=1/1;
 99/9=1/99;
 -----------------------------
 4SulfOxyCf3.M062X_6-31pGd_opt
 -----------------------------
 Symbolic Z-matrix:
 Charge =  0 Multiplicity = 1
 C                    -2.11712   1.94256  -0.02386 
 C                    -0.79202   1.19505   0.09313 
 C                     0.39854   2.1541   -0.0209 
 N                     1.65725   1.43652   0.08472 
 C                     2.8588    2.07549   0.00505 
 O                     2.8813    3.28517  -0.15698 
 N                     4.01518   1.34927   0.10388 
 C                     5.3705    1.82978   0.03765 
 C                     5.73374   3.18851  -0.1322 
 C                     6.40672   0.88121   0.14803 
 C                     7.74908   1.26289   0.08969 
 C                     8.09037   2.60698  -0.08084 
 C                     7.07991   3.56437  -0.18937 
 H                    -2.95886   1.22338   0.06102 
 H                    -2.1855    2.45528  -1.00704 
 H                    -2.20892   2.69546   0.78774 
 H                    -0.73457   0.43561  -0.71695 
 H                    -0.75628   0.6744    1.07486 
 H                     0.33855   2.91147   0.79176 
 H                     0.35532   2.67336  -1.00384 
 H                     1.64084   0.41334   0.22043 
 H                     3.90395   0.33184   0.23706 
 H                     5.02039   3.98636  -0.22433 
 H                     6.17379  -0.16823   0.27964 
 H                     8.51864   0.50722   0.17795 
 S                     9.80958   3.11994  -0.16022 
 O                     10.65643   1.87293  -0.46005 
 O                     10.27371   3.38393   1.28004 
 H                     7.33533   4.60837  -0.32006 
 C                     10.44619   4.4613   -1.20643 
 F                     11.82071   4.53299  -1.08202 
 F                     10.12103   4.21033  -2.52553 
 F                     9.88968   5.66226  -0.81047 
 

 GradGradGradGradGradGradGradGradGradGradGradGradGradGradGradGradGradGrad
 Berny optimization.
 Initialization pass.
                           ----------------------------
                           !    Initial Parameters    !
                           ! (Angstroms and Degrees)  !
 --------------------------                            --------------------------
 ! Name  Definition              Value          Derivative Info.                !
 --------------------------------------------------------------------------------
 ! R1    R(1,2)                  1.5259         estimate D2E/DX2                !
 ! R2    R(1,14)                 1.1104         estimate D2E/DX2                !
 ! R3    R(1,15)                 1.1109         estimate D2E/DX2                !
 ! R4    R(1,16)                 1.1108         estimate D2E/DX2                !
 ! R5    R(2,3)                  1.533          estimate D2E/DX2                !
 ! R6    R(2,17)                 1.1119         estimate D2E/DX2                !
 ! R7    R(2,18)                 1.1118         estimate D2E/DX2                !
 ! R8    R(3,4)                  1.4527         estimate D2E/DX2                !
 ! R9    R(3,19)                 1.1125         estimate D2E/DX2                !
 ! R10   R(3,20)                 1.1125         estimate D2E/DX2                !
 ! R11   R(4,5)                  1.3632         estimate D2E/DX2                !
 ! R12   R(4,21)                 1.0323         estimate D2E/DX2                !
 ! R13   R(5,6)                  1.2207         estimate D2E/DX2                !
 ! R14   R(5,7)                  1.3691         estimate D2E/DX2                !
 ! R15   R(7,8)                  1.4395         estimate D2E/DX2                !
 ! R16   R(7,22)                 1.0321         estimate D2E/DX2                !
 ! R17   R(8,9)                  1.4167         estimate D2E/DX2                !
 ! R18   R(8,10)                 1.4092         estimate D2E/DX2                !
 ! R19   R(9,13)                 1.3988         estimate D2E/DX2                !
 ! R20   R(9,23)                 1.0742         estimate D2E/DX2                !
 ! R21   R(10,11)                1.3968         estimate D2E/DX2                !
 ! R22   R(10,24)                1.083          estimate D2E/DX2                !
 ! R23   R(11,12)                1.3972         estimate D2E/DX2                !
 ! R24   R(11,25)                1.0822         estimate D2E/DX2                !
 ! R25   R(12,13)                1.3962         estimate D2E/DX2                !
 ! R26   R(12,26)                1.7959         estimate D2E/DX2                !
 ! R27   R(13,29)                1.0827         estimate D2E/DX2                !
 ! R28   R(26,27)                1.5369         estimate D2E/DX2                !
 ! R29   R(26,28)                1.5361         estimate D2E/DX2                !
 ! R30   R(26,30)                1.8163         estimate D2E/DX2                !
 ! R31   R(30,31)                1.382          estimate D2E/DX2                !
 ! R32   R(30,32)                1.3816         estimate D2E/DX2                !
 ! R33   R(30,33)                1.3816         estimate D2E/DX2                !
 ! A1    A(2,1,14)             109.5821         estimate D2E/DX2                !
 ! A2    A(2,1,15)             110.328          estimate D2E/DX2                !
 ! A3    A(2,1,16)             110.3515         estimate D2E/DX2                !
 ! A4    A(14,1,15)            108.6574         estimate D2E/DX2                !
 ! A5    A(14,1,16)            108.6924         estimate D2E/DX2                !
 ! A6    A(15,1,16)            109.1899         estimate D2E/DX2                !
 ! A7    A(1,2,3)              111.2378         estimate D2E/DX2                !
 ! A8    A(1,2,17)             108.8815         estimate D2E/DX2                !
 ! A9    A(1,2,18)             108.9668         estimate D2E/DX2                !
 ! A10   A(3,2,17)             109.4492         estimate D2E/DX2                !
 ! A11   A(3,2,18)             109.4915         estimate D2E/DX2                !
 ! A12   A(17,2,18)            108.7723         estimate D2E/DX2                !
 ! A13   A(2,3,4)              111.0058         estimate D2E/DX2                !
 ! A14   A(2,3,19)             109.2494         estimate D2E/DX2                !
 ! A15   A(2,3,20)             109.1195         estimate D2E/DX2                !
 ! A16   A(4,3,19)             109.2621         estimate D2E/DX2                !
 ! A17   A(4,3,20)             109.1747         estimate D2E/DX2                !
 ! A18   A(19,3,20)            108.9996         estimate D2E/DX2                !
 ! A19   A(3,4,5)              121.8648         estimate D2E/DX2                !
 ! A20   A(3,4,21)             119.0378         estimate D2E/DX2                !
 ! A21   A(5,4,21)             119.097          estimate D2E/DX2                !
 ! A22   A(4,5,6)              119.242          estimate D2E/DX2                !
 ! A23   A(4,5,7)              119.4474         estimate D2E/DX2                !
 ! A24   A(6,5,7)              121.3103         estimate D2E/DX2                !
 ! A25   A(5,7,8)              127.9418         estimate D2E/DX2                !
 ! A26   A(5,7,22)             116.1794         estimate D2E/DX2                !
 ! A27   A(8,7,22)             115.8779         estimate D2E/DX2                !
 ! A28   A(7,8,9)              124.5467         estimate D2E/DX2                !
 ! A29   A(7,8,10)             117.6482         estimate D2E/DX2                !
 ! A30   A(9,8,10)             117.805          estimate D2E/DX2                !
 ! A31   A(8,9,13)             120.6213         estimate D2E/DX2                !
 ! A32   A(8,9,23)             123.5298         estimate D2E/DX2                !
 ! A33   A(13,9,23)            115.8488         estimate D2E/DX2                !
 ! A34   A(8,10,11)            121.2975         estimate D2E/DX2                !
 ! A35   A(8,10,24)            120.2416         estimate D2E/DX2                !
 ! A36   A(11,10,24)           118.4609         estimate D2E/DX2                !
 ! A37   A(10,11,12)           120.1801         estimate D2E/DX2                !
 ! A38   A(10,11,25)           119.2885         estimate D2E/DX2                !
 ! A39   A(12,11,25)           120.5314         estimate D2E/DX2                !
 ! A40   A(11,12,13)           119.4953         estimate D2E/DX2                !
 ! A41   A(11,12,26)           120.9318         estimate D2E/DX2                !
 ! A42   A(13,12,26)           119.5728         estimate D2E/DX2                !
 ! A43   A(9,13,12)            120.6005         estimate D2E/DX2                !
 ! A44   A(9,13,29)            119.4098         estimate D2E/DX2                !
 ! A45   A(12,13,29)           119.9897         estimate D2E/DX2                !
 ! A46   A(12,26,27)           107.7195         estimate D2E/DX2                !
 ! A47   A(12,26,28)           107.2719         estimate D2E/DX2                !
 ! A48   A(12,26,30)           124.8851         estimate D2E/DX2                !
 ! A49   A(27,26,28)            98.9675         estimate D2E/DX2                !
 ! A50   A(27,26,30)           107.0799         estimate D2E/DX2                !
 ! A51   A(28,26,30)           107.8939         estimate D2E/DX2                !
 ! A52   A(26,30,31)           109.5756         estimate D2E/DX2                !
 ! A53   A(26,30,32)           109.47           estimate D2E/DX2                !
 ! A54   A(26,30,33)           109.6143         estimate D2E/DX2                !
 ! A55   A(31,30,32)           109.2357         estimate D2E/DX2                !
 ! A56   A(31,30,33)           109.2525         estimate D2E/DX2                !
 ! A57   A(32,30,33)           109.6785         estimate D2E/DX2                !
 ! D1    D(14,1,2,3)           179.9313         estimate D2E/DX2                !
 ! D2    D(14,1,2,17)           59.2362         estimate D2E/DX2                !
 ! D3    D(14,1,2,18)          -59.2652         estimate D2E/DX2                !
 ! D4    D(15,1,2,3)            60.3349         estimate D2E/DX2                !
 ! D5    D(15,1,2,17)          -60.3601         estimate D2E/DX2                !
 ! D6    D(15,1,2,18)         -178.8615         estimate D2E/DX2                !
 ! D7    D(16,1,2,3)           -60.4147         estimate D2E/DX2                !
 ! D8    D(16,1,2,17)          178.8903         estimate D2E/DX2                !
 ! D9    D(16,1,2,18)           60.3889         estimate D2E/DX2                !
 ! D10   D(1,2,3,4)           -179.727          estimate D2E/DX2                !
 ! D11   D(1,2,3,19)            59.7164         estimate D2E/DX2                !
 ! D12   D(1,2,3,20)           -59.3636         estimate D2E/DX2                !
 ! D13   D(17,2,3,4)           -59.3666         estimate D2E/DX2                !
 ! D14   D(17,2,3,19)         -179.9231         estimate D2E/DX2                !
 ! D15   D(17,2,3,20)           60.9968         estimate D2E/DX2                !
 ! D16   D(18,2,3,4)            59.7783         estimate D2E/DX2                !
 ! D17   D(18,2,3,19)          -60.7783         estimate D2E/DX2                !
 ! D18   D(18,2,3,20)         -179.8583         estimate D2E/DX2                !
 ! D19   D(2,3,4,5)            179.6294         estimate D2E/DX2                !
 ! D20   D(2,3,4,21)            -0.1394         estimate D2E/DX2                !
 ! D21   D(19,3,4,5)           -59.8216         estimate D2E/DX2                !
 ! D22   D(19,3,4,21)          120.4096         estimate D2E/DX2                !
 ! D23   D(20,3,4,5)            59.2986         estimate D2E/DX2                !
 ! D24   D(20,3,4,21)         -120.4701         estimate D2E/DX2                !
 ! D25   D(3,4,5,6)              0.1463         estimate D2E/DX2                !
 ! D26   D(3,4,5,7)           -179.6508         estimate D2E/DX2                !
 ! D27   D(21,4,5,6)           179.9149         estimate D2E/DX2                !
 ! D28   D(21,4,5,7)             0.1178         estimate D2E/DX2                !
 ! D29   D(4,5,7,8)            179.6096         estimate D2E/DX2                !
 ! D30   D(4,5,7,22)            -0.0248         estimate D2E/DX2                !
 ! D31   D(6,5,7,8)             -0.1831         estimate D2E/DX2                !
 ! D32   D(6,5,7,22)          -179.8175         estimate D2E/DX2                !
 ! D33   D(5,7,8,9)              0.7812         estimate D2E/DX2                !
 ! D34   D(5,7,8,10)          -179.1406         estimate D2E/DX2                !
 ! D35   D(22,7,8,9)          -179.5835         estimate D2E/DX2                !
 ! D36   D(22,7,8,10)            0.4948         estimate D2E/DX2                !
 ! D37   D(7,8,9,13)          -179.8145         estimate D2E/DX2                !
 ! D38   D(7,8,9,23)             0.1874         estimate D2E/DX2                !
 ! D39   D(10,8,9,13)            0.1071         estimate D2E/DX2                !
 ! D40   D(10,8,9,23)         -179.891          estimate D2E/DX2                !
 ! D41   D(7,8,10,11)          179.7964         estimate D2E/DX2                !
 ! D42   D(7,8,10,24)           -0.117          estimate D2E/DX2                !
 ! D43   D(9,8,10,11)           -0.1308         estimate D2E/DX2                !
 ! D44   D(9,8,10,24)          179.9559         estimate D2E/DX2                !
 ! D45   D(8,9,13,12)            0.0376         estimate D2E/DX2                !
 ! D46   D(8,9,13,29)          179.9773         estimate D2E/DX2                !
 ! D47   D(23,9,13,12)        -179.9641         estimate D2E/DX2                !
 ! D48   D(23,9,13,29)          -0.0245         estimate D2E/DX2                !
 ! D49   D(8,10,11,12)           0.0093         estimate D2E/DX2                !
 ! D50   D(8,10,11,25)        -179.993          estimate D2E/DX2                !
 ! D51   D(24,10,11,12)        179.9242         estimate D2E/DX2                !
 ! D52   D(24,10,11,25)         -0.0782         estimate D2E/DX2                !
 ! D53   D(10,11,12,13)          0.1384         estimate D2E/DX2                !
 ! D54   D(10,11,12,26)       -179.9391         estimate D2E/DX2                !
 ! D55   D(25,11,12,13)       -179.8592         estimate D2E/DX2                !
 ! D56   D(25,11,12,26)          0.0632         estimate D2E/DX2                !
 ! D57   D(11,12,13,9)          -0.1618         estimate D2E/DX2                !
 ! D58   D(11,12,13,29)        179.899          estimate D2E/DX2                !
 ! D59   D(26,12,13,9)         179.9147         estimate D2E/DX2                !
 ! D60   D(26,12,13,29)         -0.0246         estimate D2E/DX2                !
 ! D61   D(11,12,26,27)         17.6597         estimate D2E/DX2                !
 ! D62   D(11,12,26,28)        -88.0469         estimate D2E/DX2                !
 ! D63   D(11,12,26,30)        144.4332         estimate D2E/DX2                !
 ! D64   D(13,12,26,27)       -162.4179         estimate D2E/DX2                !
 ! D65   D(13,12,26,28)         91.8756         estimate D2E/DX2                !
 ! D66   D(13,12,26,30)        -35.6444         estimate D2E/DX2                !
 ! D67   D(12,26,30,31)       -176.3846         estimate D2E/DX2                !
 ! D68   D(12,26,30,32)        -56.6099         estimate D2E/DX2                !
 ! D69   D(12,26,30,33)         63.7316         estimate D2E/DX2                !
 ! D70   D(27,26,30,31)        -49.3443         estimate D2E/DX2                !
 ! D71   D(27,26,30,32)         70.4305         estimate D2E/DX2                !
 ! D72   D(27,26,30,33)       -169.228          estimate D2E/DX2                !
 ! D73   D(28,26,30,31)         56.3533         estimate D2E/DX2                !
 ! D74   D(28,26,30,32)        176.1281         estimate D2E/DX2                !
 ! D75   D(28,26,30,33)        -63.5305         estimate D2E/DX2                !
 --------------------------------------------------------------------------------
 Trust Radius=3.00D-01 FncErr=1.00D-07 GrdErr=1.00D-06
 Number of steps in this run=    175 maximum allowed number of steps=    198.
 GradGradGradGradGradGradGradGradGradGradGradGradGradGradGradGradGradGrad

                          Input orientation:                          
 ---------------------------------------------------------------------
 Center     Atomic      Atomic             Coordinates (Angstroms)
 Number     Number       Type             X           Y           Z
 ---------------------------------------------------------------------
      1          6           0       -2.117120    1.942560   -0.023860
      2          6           0       -0.792020    1.195050    0.093130
      3          6           0        0.398540    2.154100   -0.020900
      4          7           0        1.657250    1.436520    0.084720
      5          6           0        2.858800    2.075490    0.005050
      6          8           0        2.881300    3.285170   -0.156980
      7          7           0        4.015180    1.349270    0.103880
      8          6           0        5.370500    1.829780    0.037650
      9          6           0        5.733740    3.188510   -0.132200
     10          6           0        6.406720    0.881210    0.148030
     11          6           0        7.749080    1.262890    0.089690
     12          6           0        8.090370    2.606980   -0.080840
     13          6           0        7.079910    3.564370   -0.189370
     14          1           0       -2.958860    1.223380    0.061020
     15          1           0       -2.185500    2.455280   -1.007040
     16          1           0       -2.208920    2.695460    0.787740
     17          1           0       -0.734570    0.435610   -0.716950
     18          1           0       -0.756280    0.674400    1.074860
     19          1           0        0.338550    2.911470    0.791760
     20          1           0        0.355320    2.673360   -1.003840
     21          1           0        1.640840    0.413340    0.220430
     22          1           0        3.903950    0.331840    0.237060
     23          1           0        5.020390    3.986360   -0.224330
     24          1           0        6.173790   -0.168230    0.279640
     25          1           0        8.518640    0.507220    0.177950
     26         16           0        9.809580    3.119940   -0.160220
     27          8           0       10.656430    1.872930   -0.460050
     28          8           0       10.273710    3.383930    1.280040
     29          1           0        7.335330    4.608370   -0.320060
     30          6           0       10.446190    4.461300   -1.206430
     31          9           0       11.820710    4.532990   -1.082020
     32          9           0       10.121030    4.210330   -2.525530
     33          9           0        9.889680    5.662260   -0.810470
 ---------------------------------------------------------------------
                    Distance matrix (angstroms):
                    1          2          3          4          5
     1  C    0.000000
     2  C    1.525892   0.000000
     3  C    2.524540   1.533040   0.000000
     4  N    3.809690   2.461159   1.452731   0.000000
     5  C    4.977779   3.756517   2.461652   1.363214   0.000000
     6  O    5.177309   4.233726   2.731654   2.230297   1.220691
     7  N    6.162257   4.809685   3.707210   2.359621   1.369079
     8  C    7.488722   6.195370   4.982870   3.734313   2.523900
     9  C    7.949851   6.827166   5.435692   4.442330   3.085925
    10  C    8.591383   7.205787   6.143860   4.782242   3.746263
    11  C    9.890235   8.541370   7.405196   6.094306   4.958056
    12  C   10.229250   8.995591   7.705384   6.540827   5.259200
    13  C    9.340397   8.225616   6.830662   5.831647   4.480216
    14  H    1.110383   2.167263   3.484980   4.621089   5.879999
    15  H    1.110946   2.177232   2.782165   4.122686   5.158830
    16  H    1.110847   2.177457   2.783131   4.126310   5.165148
    17  H    2.159332   1.111881   2.172932   2.713908   4.015320
    18  H    2.160394   1.111822   2.173433   2.717781   4.021983
    19  H    2.763031   2.170799   1.112486   2.101036   2.769375
    20  H    2.758150   2.169132   1.112506   2.099942   2.764547
    21  H    4.064536   2.558532   2.152161   1.032271   2.071849
    22  H    6.238252   4.776817   3.959176   2.508224   2.046090
    23  H    7.427069   6.455719   4.975948   4.231773   2.894220
    24  H    8.560767   7.100410   6.231938   4.797119   4.012336
    25  H   10.734073   9.336418   8.287809   6.924663   5.875641
    26  S   11.985449  10.777908   9.461497   8.327928   7.030756
    27  O   12.781185  11.481835  10.271135   9.026210   7.814114
    28  O   12.542343  11.342413  10.036130   8.914291   7.636655
    29  H    9.825634   8.824698   7.364237   6.516523   5.153688
    30  C   12.867761  11.775169  10.377086   9.384126   8.045388
    31  F   14.215947  13.099763  11.715420  10.688561   9.356113
    32  F   12.695411  11.620841  10.248320   9.281325   7.981313
    33  F   12.594371  11.613405  10.149500   9.296835   7.934940
                    6          7          8          9         10
     6  O    0.000000
     7  N    2.258637   0.000000
     8  C    2.890010   1.439503   0.000000
     9  C    2.854185   2.528238   1.416665   0.000000
    10  C    4.277925   2.437313   1.409156   2.419724   0.000000
    11  C    5.276907   3.734926   2.445755   2.796219   1.396787
    12  C    5.253584   4.268856   2.831214   2.427863   2.421847
    13  C    4.208008   3.792787   2.445899   1.398826   2.786821
    14  H    6.197255   6.975308   8.351437   8.914054   9.372232
    15  H    5.204208   6.395767   7.653480   8.001083   8.811250
    16  H    5.210623   6.404632   7.665484   8.010945   8.827796
    17  H    4.637680   4.905982   6.307536   7.054036   7.207272
    18  H    4.643871   4.915799   6.320454   7.063859   7.225673
    19  H    2.739587   4.053549   5.201851   5.480742   6.431099
    20  H    2.733507   4.046583   5.191181   5.472891   6.415454
    21  H    3.150966   2.554807   3.993754   4.957595   4.789338
    22  H    3.150117   1.032121   2.105791   3.412484   2.563902
    23  H    2.252090   2.841199   2.200465   1.074207   3.420895
    24  H    4.791357   2.644484   2.166997   3.410419   1.083006
    25  H    6.293551   4.582105   3.417548   3.878296   2.144987
    26  S    6.930251   6.064659   4.626996   4.076513   4.084897
    27  O    7.908155   6.685689   5.309484   5.105988   4.406053
    28  O    7.531434   6.685237   5.291539   4.758565   4.743276
    29  H    4.649283   4.671708   3.421853   2.148577   3.869515
    30  C    7.727366   7.263576   5.851091   4.998115   5.564973
    31  F    9.073357   8.512857   7.082811   6.305631   6.645285
    32  F    7.673307   7.237463   5.899529   5.101025   5.659246
    33  F    7.429334   7.344908   5.985833   4.883782   5.992343
                   11         12         13         14         15
    11  C    0.000000
    12  C    1.397189   0.000000
    13  C    2.412980   1.396211   0.000000
    14  H   10.708051  11.136425  10.311151   0.000000
    15  H   10.065808  10.318642   9.367310   1.804554   0.000000
    16  H   10.084706  10.336229   9.380411   1.804869   1.810931
    17  H    8.561973   9.110381   8.434072   2.484610   2.503681
    18  H    8.582426   9.128731   8.447253   2.486083   3.090067
    19  H    7.624085   7.806719   6.843598   3.775784   3.132829
    20  H    7.606111   7.790208   6.832084   3.770962   2.550164
    21  H    6.168422   6.819036   6.299239   4.673202   4.507447
    22  H    3.958989   4.775294   4.551683   6.922716   6.567966
    23  H    3.868029   3.368688   2.102598   8.448900   7.408218
    24  H    2.136755   3.391904   3.869538   9.240653   8.855285
    25  H    1.082150   2.158560   3.398681  11.500416  10.944302
    26  S    2.785094   1.795860   2.765767  12.910420  12.043289
    27  O    3.021100   2.695792   3.965568  13.640731  12.866759
    28  O    3.505638   2.687493   3.520239  13.463094  12.701379
    29  H    3.395780   2.152411   1.082707  10.843142   9.785394
    30  C    4.379972   3.202397   3.629151  13.848679  12.791539
    31  F    5.352068   4.315937   4.920390  15.188672  14.159676
    32  F    4.599231   3.559610   3.888871  13.663661  12.523446
    33  F    4.974627   3.620029   3.561140  13.621605  12.495332
                   16         17         18         19         20
    16  H    0.000000
    17  H    3.089453   0.000000
    18  H    2.505451   1.807782   0.000000
    19  H    2.556615   3.091549   2.506647   0.000000
    20  H    3.128190   2.505532   3.090710   1.811396   0.000000
    21  H    4.511160   2.553772   2.558200   2.874549   2.873863
    22  H    6.577015   4.736747   4.747315   4.435568   4.428919
    23  H    7.413072   6.780123   6.784312   4.909934   4.908613
    24  H    8.872920   7.005944   7.026256   6.617918   6.601254
    25  H   10.965436   9.296659   9.319685   8.548161   8.528106
    26  S   12.063298  10.894709  10.915287   9.521036   9.502324
    27  O   12.951863  11.484196  11.577667  10.445298  10.346461
    28  O   12.511291  11.569909  11.359768   9.958365  10.202719
    29  H    9.796895   9.093555   9.104728   7.284953   7.275463
    30  C   12.932390  11.893493  12.043265  10.419171  10.250045
    31  F   14.272457  13.211997  13.331224  11.746505  11.615486
    32  F   12.856915  11.634583  11.990892  10.410973  10.002345
    33  F   12.559152  11.840663  11.906707  10.067675   9.993745
                   21         22         23         24         25
    21  H    0.000000
    22  H    2.264638   0.000000
    23  H    4.938182   3.849004   0.000000
    24  H    4.570489   2.324663   4.341075   0.000000
    25  H    6.878572   4.618400   4.950151   2.442313   0.000000
    26  S    8.613878   6.542767   4.867354   4.921840   2.933801
    27  O    9.158292   6.961100   6.023877   4.980716   2.615789
    28  O    9.190953   7.139811   5.497583   5.516157   3.545467
    29  H    7.093492   5.511212   2.398960   4.952244   4.297402
    30  C    9.795718   7.870007   5.534383   6.472585   4.611584
    31  F   11.058827   9.058958   6.875957   7.472837   5.357053
    32  F    9.688707   7.831135   5.600198   6.528512   4.856900
    33  F    9.831443   8.083295   5.182874   6.999342   5.425050
                   26         27         28         29         30
    26  S    0.000000
    27  O    1.536908   0.000000
    28  O    1.536052   2.336131   0.000000
    29  H    2.891865   4.304873   3.562815   0.000000
    30  C    1.816335   2.702026   2.715328   3.238013   0.000000
    31  F    2.625085   2.969565   3.048422   4.550264   1.381999
    32  F    2.623098   3.164854   3.897257   3.575284   1.381571
    33  F    2.625382   3.881974   3.115846   2.806402   1.381591
                   31         32         33
    31  F    0.000000
    32  F    2.253163   0.000000
    33  F    2.253412   2.258994   0.000000
 Stoichiometry    C11H13F3N2O3S
 Framework group  C1[X(C11H13F3N2O3S)]
 Deg. of freedom    93
 Full point group                 C1      NOp   1
 Largest Abelian subgroup         C1      NOp   1
 Largest concise Abelian subgroup C1      NOp   1
                         Standard orientation:                         
 ---------------------------------------------------------------------
 Center     Atomic      Atomic             Coordinates (Angstroms)
 Number     Number       Type             X           Y           Z
 ---------------------------------------------------------------------
      1          6           0       -8.395413   -0.904222    0.012471
      2          6           0       -7.252468    0.092560    0.181146
      3          6           0       -5.892979   -0.576921   -0.050799
      4          7           0       -4.808384    0.374832    0.117275
      5          6           0       -3.502831    0.011758   -0.031253
      6          8           0       -3.234127   -1.144419   -0.316101
      7          7           0       -2.519577    0.947868    0.145628
      8          6           0       -1.095347    0.765836    0.042656
      9          6           0       -0.463685   -0.458745   -0.286500
     10          6           0       -0.273755    1.884061    0.288174
     11          6           0        1.118007    1.792299    0.213392
     12          6           0        1.725388    0.576301   -0.109989
     13          6           0        0.930591   -0.543998   -0.360251
     14          1           0       -9.364887   -0.391874    0.187310
     15          1           0       -8.294937   -1.734057    0.744234
     16          1           0       -8.394378   -1.322676   -1.016546
     17          1           0       -7.288490    0.510429    1.210887
     18          1           0       -7.386325    0.922379   -0.546611
     19          1           0       -5.860023   -0.992512   -1.082217
     20          1           0       -5.766628   -1.407444    0.678541
     21          1           0       -5.033005    1.352824    0.359473
     22          1           0       -2.835681    1.900149    0.387519
     23          1           0       -0.999969   -1.366385   -0.492680
     24          1           0       -0.715061    2.839868    0.542308
     25          1           0        1.717769    2.671694    0.408327
     26         16           0        3.512887    0.435118   -0.210116
     27          8           0        4.119257    1.641291    0.524426
     28          8           0        3.919479    0.799917   -1.645755
     29          1           0        1.392780   -1.489875   -0.613141
     30          6           0        4.468849   -1.027405    0.286109
     31          9           0        5.819160   -0.765068    0.152831
     32          9           0        4.192444   -1.332509    1.604916
     33          9           0        4.130991   -2.097618   -0.519675
 ---------------------------------------------------------------------
 Rotational constants (GHZ):      1.0117119      0.0886748      0.0847456
 General basis read from cards:  (6D, 7F)
 There are   410 symmetry adapted cartesian basis functions of A   symmetry.
 There are   410 symmetry adapted basis functions of A   symmetry.
   410 basis functions,   716 primitive gaussians,   410 cartesian basis functions
    80 alpha electrons       80 beta electrons
       nuclear repulsion energy      1697.5876177157 Hartrees.
 NAtoms=   33 NActive=   33 NUniq=   33 SFac= 1.00D+00 NAtFMM=   60 NAOKFM=F Big=F
 Integral buffers will be    131072 words long.
 Raffenetti 2 integral format.
 Two-electron integral symmetry is turned on.
 One-electron integrals computed using PRISM.
 NBasis=   410 RedAO= T EigKep=  1.18D-06  NBF=   410
 NBsUse=   409 1.00D-06 EigRej=  9.07D-07 NBFU=   409
 ExpMin= 4.05D-02 ExpMax= 2.19D+04 ExpMxC= 3.30D+03 IAcc=3 IRadAn=         5 AccDes= 0.00D+00
 Harris functional with IExCor= 1009 and IRadAn=       5 diagonalized for initial guess.
 HarFok:  IExCor= 1009 AccDes= 0.00D+00 IRadAn=         5 IDoV= 1 UseB2=F ITyADJ=14
 ICtDFT=  3500011 ScaDFX=  1.000000  1.000000  1.000000  1.000000
 FoFCou: FMM=F IPFlag=           0 FMFlag=      100000 FMFlg1=           0
         NFxFlg=           0 DoJE=T BraDBF=F KetDBF=T FulRan=T
         wScrn=  0.000000 ICntrl=     500 IOpCl=  0 I1Cent=   200000004 NGrid=           0
         NMat0=    1 NMatS0=      1 NMatT0=    0 NMatD0=    1 NMtDS0=    0 NMtDT0=    0
 Petite list used in FoFCou.
 Requested convergence on RMS density matrix=1.00D-08 within 128 cycles.
 Requested convergence on MAX density matrix=1.00D-06.
 Requested convergence on             energy=1.00D-06.
 No special actions if energy rises.
 SCF Done:  E(RM062X) =  -1459.35091069     A.U. after   18 cycles
            NFock= 18  Conv=0.63D-08     -V/T= 2.0075

 **********************************************************************

            Population analysis using the SCF density.

 **********************************************************************

 Orbital symmetries:
       Occupied  (A) (A) (A) (A) (A) (A) (A) (A) (A) (A) (A) (A)
                 (A) (A) (A) (A) (A) (A) (A) (A) (A) (A) (A) (A)
                 (A) (A) (A) (A) (A) (A) (A) (A) (A) (A) (A) (A)
                 (A) (A) (A) (A) (A) (A) (A) (A) (A) (A) (A) (A)
                 (A) (A) (A) (A) (A) (A) (A) (A) (A) (A) (A) (A)
                 (A) (A) (A) (A) (A) (A) (A) (A) (A) (A) (A) (A)
                 (A) (A) (A) (A) (A) (A) (A) (A)
       Virtual   (A) (A) (A) (A) (A) (A) (A) (A) (A) (A) (A) (A)
                 (A) (A) (A) (A) (A) (A) (A) (A) (A) (A) (A) (A)
                 (A) (A) (A) (A) (A) (A) (A) (A) (A) (A) (A) (A)
                 (A) (A) (A) (A) (A) (A) (A) (A) (A) (A) (A) (A)
                 (A) (A) (A) (A) (A) (A) (A) (A) (A) (A) (A) (A)
                 (A) (A) (A) (A) (A) (A) (A) (A) (A) (A) (A) (A)
                 (A) (A) (A) (A) (A) (A) (A) (A) (A) (A) (A) (A)
                 (A) (A) (A) (A) (A) (A) (A) (A) (A) (A) (A) (A)
                 (A) (A) (A) (A) (A) (A) (A) (A) (A) (A) (A) (A)
                 (A) (A) (A) (A) (A) (A) (A) (A) (A) (A) (A) (A)
                 (A) (A) (A) (A) (A) (A) (A) (A) (A) (A) (A) (A)
                 (A) (A) (A) (A) (A) (A) (A) (A) (A) (A) (A) (A)
                 (A) (A) (A) (A) (A) (A) (A) (A) (A) (A) (A) (A)
                 (A) (A) (A) (A) (A) (A) (A) (A) (A) (A) (A) (A)
                 (A) (A) (A) (A) (A) (A) (A) (A) (A) (A) (A) (A)
                 (A) (A) (A) (A) (A) (A) (A) (A) (A) (A) (A) (A)
                 (A) (A) (A) (A) (A) (A) (A) (A) (A) (A) (A) (A)
                 (A) (A) (A) (A) (A) (A) (A) (A) (A) (A) (A) (A)
                 (A) (A) (A) (A) (A) (A) (A) (A) (A) (A) (A) (A)
                 (A) (A) (A) (A) (A) (A) (A) (A) (A) (A) (A) (A)
                 (A) (A) (A) (A) (A) (A) (A) (A) (A) (A) (A) (A)
                 (A) (A) (A) (A) (A) (A) (A) (A) (A) (A) (A) (A)
                 (A) (A) (A) (A) (A) (A) (A) (A) (A) (A) (A) (A)
                 (A) (A) (A) (A) (A) (A) (A) (A) (A) (A) (A) (A)
                 (A) (A) (A) (A) (A) (A) (A) (A) (A) (A) (A) (A)
                 (A) (A) (A) (A) (A) (A) (A) (A) (A) (A) (A) (A)
                 (A) (A) (A) (A) (A) (A) (A) (A) (A) (A) (A) (A)
                 (A) (A) (A) (A) (A)
 The electronic state is 1-A.
 Alpha  occ. eigenvalues --  -90.16915 -25.35040 -25.34877 -25.34644 -19.63926
 Alpha  occ. eigenvalues --  -19.63862 -19.62249 -14.83953 -14.81230 -10.88280
 Alpha  occ. eigenvalues --  -10.70457 -10.65626 -10.63397 -10.60900 -10.60683
 Alpha  occ. eigenvalues --  -10.60521 -10.60132 -10.58934 -10.57605 -10.56229
 Alpha  occ. eigenvalues --   -8.48472  -6.40623  -6.40513  -6.40479  -1.48510
 Alpha  occ. eigenvalues --   -1.40960  -1.40457  -1.20451  -1.19965  -1.07793
 Alpha  occ. eigenvalues --   -1.07296  -1.05043  -1.00140  -0.92000  -0.90407
 Alpha  occ. eigenvalues --   -0.88792  -0.88397  -0.81167  -0.78896  -0.74845
 Alpha  occ. eigenvalues --   -0.74593  -0.72109  -0.71905  -0.70368  -0.69551
 Alpha  occ. eigenvalues --   -0.68044  -0.66075  -0.63980  -0.60498  -0.60483
 Alpha  occ. eigenvalues --   -0.59107  -0.57991  -0.57313  -0.56932  -0.56576
 Alpha  occ. eigenvalues --   -0.56515  -0.55235  -0.54916  -0.54446  -0.53858
 Alpha  occ. eigenvalues --   -0.53027  -0.51808  -0.51189  -0.49540  -0.49410
 Alpha  occ. eigenvalues --   -0.48560  -0.47187  -0.45092  -0.44473  -0.42383
 Alpha  occ. eigenvalues --   -0.42183  -0.40986  -0.39895  -0.38089  -0.37317
 Alpha  occ. eigenvalues --   -0.35919  -0.34743  -0.34336  -0.33775  -0.30810
 Alpha virt. eigenvalues --   -0.05434  -0.02593  -0.01909  -0.01743   0.01076
 Alpha virt. eigenvalues --    0.01430   0.02091   0.02236   0.02856   0.03050
 Alpha virt. eigenvalues --    0.03647   0.04452   0.04661   0.05035   0.05502
 Alpha virt. eigenvalues --    0.06189   0.06321   0.07034   0.07335   0.07587
 Alpha virt. eigenvalues --    0.07792   0.08170   0.08926   0.09255   0.09477
 Alpha virt. eigenvalues --    0.09590   0.10070   0.10367   0.11216   0.11562
 Alpha virt. eigenvalues --    0.12042   0.12306   0.13259   0.13462   0.13833
 Alpha virt. eigenvalues --    0.14327   0.14403   0.14662   0.15001   0.15678
 Alpha virt. eigenvalues --    0.16153   0.16399   0.16871   0.17603   0.18195
 Alpha virt. eigenvalues --    0.18615   0.19006   0.19083   0.19794   0.19911
 Alpha virt. eigenvalues --    0.20282   0.20693   0.21073   0.21402   0.21821
 Alpha virt. eigenvalues --    0.22257   0.22436   0.22780   0.23212   0.23768
 Alpha virt. eigenvalues --    0.24067   0.24251   0.24720   0.25389   0.25790
 Alpha virt. eigenvalues --    0.26306   0.26784   0.26973   0.27193   0.27862
 Alpha virt. eigenvalues --    0.28459   0.28802   0.29175   0.29455   0.29834
 Alpha virt. eigenvalues --    0.30467   0.30842   0.31332   0.31860   0.32732
 Alpha virt. eigenvalues --    0.32814   0.33034   0.33420   0.34084   0.34446
 Alpha virt. eigenvalues --    0.35087   0.35262   0.35622   0.36050   0.36220
 Alpha virt. eigenvalues --    0.36783   0.37478   0.38000   0.38146   0.38512
 Alpha virt. eigenvalues --    0.39240   0.39888   0.40316   0.41050   0.41680
 Alpha virt. eigenvalues --    0.42247   0.42585   0.44261   0.44524   0.45282
 Alpha virt. eigenvalues --    0.45675   0.46329   0.48589   0.48673   0.50017
 Alpha virt. eigenvalues --    0.51815   0.52946   0.53461   0.57186   0.58175
 Alpha virt. eigenvalues --    0.58645   0.60506   0.63563   0.66090   0.66728
 Alpha virt. eigenvalues --    0.67275   0.67569   0.69822   0.70177   0.70891
 Alpha virt. eigenvalues --    0.72425   0.72684   0.73673   0.74551   0.74892
 Alpha virt. eigenvalues --    0.76025   0.76993   0.77191   0.78834   0.79745
 Alpha virt. eigenvalues --    0.80745   0.81409   0.82388   0.82759   0.85247
 Alpha virt. eigenvalues --    0.85615   0.86755   0.86884   0.87854   0.89206
 Alpha virt. eigenvalues --    0.91374   0.92944   0.95087   0.95443   0.95817
 Alpha virt. eigenvalues --    0.96632   0.97909   0.98563   1.00342   1.00669
 Alpha virt. eigenvalues --    1.01842   1.02555   1.03295   1.03937   1.06174
 Alpha virt. eigenvalues --    1.08024   1.08654   1.08768   1.09574   1.10468
 Alpha virt. eigenvalues --    1.11656   1.12203   1.12644   1.14255   1.14628
 Alpha virt. eigenvalues --    1.16197   1.18239   1.19458   1.20581   1.21679
 Alpha virt. eigenvalues --    1.25120   1.26919   1.27629   1.28950   1.29509
 Alpha virt. eigenvalues --    1.31247   1.34054   1.34465   1.35169   1.35763
 Alpha virt. eigenvalues --    1.37489   1.38178   1.38989   1.39890   1.41321
 Alpha virt. eigenvalues --    1.42836   1.43121   1.43690   1.44394   1.45336
 Alpha virt. eigenvalues --    1.45698   1.46861   1.47552   1.48255   1.48743
 Alpha virt. eigenvalues --    1.51027   1.52054   1.53920   1.55165   1.55461
 Alpha virt. eigenvalues --    1.56482   1.58061   1.59851   1.63570   1.65125
 Alpha virt. eigenvalues --    1.66436   1.67732   1.68635   1.70774   1.71099
 Alpha virt. eigenvalues --    1.71562   1.72652   1.74430   1.75448   1.77273
 Alpha virt. eigenvalues --    1.77694   1.81657   1.83090   1.83635   1.84359
 Alpha virt. eigenvalues --    1.84857   1.85357   1.85473   1.86571   1.86886
 Alpha virt. eigenvalues --    1.87347   1.88238   1.90110   1.90287   1.92222
 Alpha virt. eigenvalues --    1.93032   1.94340   1.95038   1.95464   1.96038
 Alpha virt. eigenvalues --    1.97304   1.97652   1.98051   1.98701   2.00047
 Alpha virt. eigenvalues --    2.00423   2.01183   2.02013   2.02494   2.02957
 Alpha virt. eigenvalues --    2.04123   2.04570   2.05507   2.06196   2.09230
 Alpha virt. eigenvalues --    2.12249   2.12732   2.13878   2.14453   2.16120
 Alpha virt. eigenvalues --    2.16856   2.18074   2.18363   2.19756   2.22044
 Alpha virt. eigenvalues --    2.22805   2.23687   2.24910   2.27640   2.27829
 Alpha virt. eigenvalues --    2.28607   2.29705   2.30334   2.32379   2.33851
 Alpha virt. eigenvalues --    2.36337   2.36953   2.38110   2.39154   2.40281
 Alpha virt. eigenvalues --    2.46685   2.54092   2.55557   2.61055   2.62196
 Alpha virt. eigenvalues --    2.63578   2.64037   2.66573   2.69594   2.72147
 Alpha virt. eigenvalues --    2.73144   2.74715   2.75226   2.76442   2.77551
 Alpha virt. eigenvalues --    2.78056   2.81486   2.82815   2.87607   2.89608
 Alpha virt. eigenvalues --    2.95861   3.02975   3.10165   3.13930   3.15148
 Alpha virt. eigenvalues --    3.17169   3.25866   3.29958   3.37575   4.01337
 Alpha virt. eigenvalues --    4.12869   4.19957   4.23342   4.24965   4.28035
 Alpha virt. eigenvalues --    4.32018   4.36899   4.39064   4.40622   4.40805
 Alpha virt. eigenvalues --    4.46810   4.48478   4.49526   4.56582   4.65360
 Alpha virt. eigenvalues --    4.73484   5.66893   5.84410   6.31616
          Condensed to atoms (all electrons):
               1          2          3          4          5          6
     1  C    5.555912   0.008347   0.009099  -0.003253  -0.050069  -0.002153
     2  C    0.008347   6.141399  -0.397935  -0.080871   0.137543   0.017971
     3  C    0.009099  -0.397935   6.986545   0.362927  -0.481154  -0.078941
     4  N   -0.003253  -0.080871   0.362927   7.739966   0.339527  -0.201223
     5  C   -0.050069   0.137543  -0.481154   0.339527   7.480397   0.669277
     6  O   -0.002153   0.017971  -0.078941  -0.201223   0.669277   8.285830
     7  N   -0.001857   0.021380  -0.148837  -0.439973   0.107292  -0.074534
     8  C   -0.016133   0.011993  -0.628581  -0.247450  -1.014373  -0.533524
     9  C    0.001882  -0.009447   0.099365   0.103314   1.082364   0.497024
    10  C   -0.004549   0.002245  -0.289242  -0.135762  -3.714215  -0.164568
    11  C    0.000453   0.001647   0.059345   0.004903   1.396429   0.010092
    12  C   -0.000447  -0.000503  -0.053963   0.008705  -0.973003   0.018434
    13  C    0.000953  -0.000834   0.050320   0.040735   0.308350   0.138099
    14  H    0.410854  -0.084565   0.027241   0.000495  -0.002623   0.000009
    15  H    0.415976  -0.064476  -0.008751   0.000704   0.001074  -0.000060
    16  H    0.414117  -0.063766  -0.007937   0.000772   0.001401  -0.000058
    17  H   -0.030557   0.415300  -0.079961   0.007604  -0.000534  -0.000237
    18  H   -0.028782   0.413604  -0.078179   0.007332  -0.002040  -0.000218
    19  H    0.004565  -0.054564   0.423206  -0.056826  -0.006651   0.000956
    20  H    0.006843  -0.058424   0.433631  -0.058245  -0.012983   0.001152
    21  H   -0.001503  -0.000602  -0.081621   0.231681   0.035609   0.008500
    22  H   -0.000072  -0.000304   0.007620   0.030475   0.002138   0.007428
    23  H    0.000011   0.000017   0.003286   0.000188   0.029176  -0.001791
    24  H   -0.000001   0.000018  -0.000279   0.001061  -0.003946   0.000030
    25  H    0.000000   0.000000   0.000027   0.000007   0.003542   0.000000
    26  S   -0.000011  -0.000020  -0.002794   0.000942  -0.124710  -0.000104
    27  O   -0.000000  -0.000000  -0.000016   0.000007  -0.003297  -0.000002
    28  O   -0.000000  -0.000000  -0.000026   0.000003  -0.004556  -0.000003
    29  H   -0.000000   0.000002  -0.000009   0.000008  -0.000684   0.000234
    30  C    0.000000   0.000003   0.000166  -0.000058   0.012802   0.000061
    31  F    0.000000   0.000000   0.000000  -0.000000   0.000050   0.000000
    32  F   -0.000000  -0.000000  -0.000002   0.000000  -0.000362  -0.000001
    33  F   -0.000000   0.000000  -0.000003  -0.000000  -0.000769   0.000000
               7          8          9         10         11         12
     1  C   -0.001857  -0.016133   0.001882  -0.004549   0.000453  -0.000447
     2  C    0.021380   0.011993  -0.009447   0.002245   0.001647  -0.000503
     3  C   -0.148837  -0.628581   0.099365  -0.289242   0.059345  -0.053963
     4  N   -0.439973  -0.247450   0.103314  -0.135762   0.004903   0.008705
     5  C    0.107292  -1.014373   1.082364  -3.714215   1.396429  -0.973003
     6  O   -0.074534  -0.533524   0.497024  -0.164568   0.010092   0.018434
     7  N    7.849779   0.116536  -0.531548   0.421895   0.060320  -0.014547
     8  C    0.116536  19.497842  -0.821955  -4.525759   6.940269  -6.596534
     9  C   -0.531548  -0.821955  13.175513  -7.065161  -1.087021  -3.947443
    10  C    0.421895  -4.525759  -7.065161  30.247086 -14.816315   4.311698
    11  C    0.060320   6.940269  -1.087021 -14.816315  35.533100  -5.930281
    12  C   -0.014547  -6.596534  -3.947443   4.311698  -5.930281  22.644222
    13  C    0.015923  -5.473510   3.651200   1.342990 -12.815371  -0.703721
    14  H    0.000008  -0.000044   0.000003  -0.000002  -0.000000  -0.000000
    15  H    0.000023   0.000025  -0.000036   0.000004   0.000000  -0.000000
    16  H    0.000023   0.000010  -0.000031   0.000003   0.000000  -0.000000
    17  H    0.000177  -0.000402  -0.000191   0.000108   0.000010  -0.000003
    18  H    0.000216  -0.000385  -0.000208   0.000138   0.000008  -0.000002
    19  H    0.000066  -0.003264   0.002738  -0.000725  -0.000014   0.000013
    20  H    0.000350  -0.005393   0.003456  -0.001374   0.000020   0.000005
    21  H    0.032702   0.020200  -0.000234  -0.000374   0.000060  -0.000110
    22  H    0.217704   0.002589   0.078718  -0.157751   0.045922  -0.004777
    23  H   -0.014722   0.059146   0.307142   0.031368  -0.016217   0.001479
    24  H   -0.010420   0.079878   0.032906   0.130726   0.043904   0.020589
    25  H    0.000387   0.020766   0.001226  -0.081176   0.306229   0.045499
    26  S    0.002280  -1.252368  -0.010381   1.886520  -3.522894  -2.053431
    27  O    0.000291  -0.132878  -0.007887   0.266877  -0.799215  -0.168424
    28  O   -0.000012  -0.093613   0.064519   0.086844  -0.662666  -0.364192
    29  H   -0.000688  -0.008388  -0.145423  -0.041247   0.108518   0.140532
    30  C   -0.000717   0.208683  -0.204759  -0.210519   1.227981   0.911263
    31  F   -0.000001   0.003853   0.000664  -0.003685   0.023152   0.077126
    32  F    0.000014  -0.011222   0.003616   0.018039  -0.028478  -0.115439
    33  F   -0.000016  -0.005943   0.056709   0.009857  -0.143183  -0.275949
              13         14         15         16         17         18
     1  C    0.000953   0.410854   0.415976   0.414117  -0.030557  -0.028782
     2  C   -0.000834  -0.084565  -0.064476  -0.063766   0.415300   0.413604
     3  C    0.050320   0.027241  -0.008751  -0.007937  -0.079961  -0.078179
     4  N    0.040735   0.000495   0.000704   0.000772   0.007604   0.007332
     5  C    0.308350  -0.002623   0.001074   0.001401  -0.000534  -0.002040
     6  O    0.138099   0.000009  -0.000060  -0.000058  -0.000237  -0.000218
     7  N    0.015923   0.000008   0.000023   0.000023   0.000177   0.000216
     8  C   -5.473510  -0.000044   0.000025   0.000010  -0.000402  -0.000385
     9  C    3.651200   0.000003  -0.000036  -0.000031  -0.000191  -0.000208
    10  C    1.342990  -0.000002   0.000004   0.000003   0.000108   0.000138
    11  C  -12.815371  -0.000000   0.000000   0.000000   0.000010   0.000008
    12  C   -0.703721  -0.000000  -0.000000  -0.000000  -0.000003  -0.000002
    13  C   16.789074   0.000000  -0.000001  -0.000000  -0.000003  -0.000010
    14  H    0.000000   0.488456  -0.023927  -0.023831  -0.003077  -0.003056
    15  H   -0.000001  -0.023927   0.492337  -0.027809  -0.004866   0.003944
    16  H   -0.000000  -0.023831  -0.027809   0.491832   0.003950  -0.004848
    17  H   -0.000003  -0.003077  -0.004866   0.003950   0.510831  -0.033897
    18  H   -0.000010  -0.003056   0.003944  -0.004848  -0.033897   0.510106
    19  H    0.000290  -0.000060  -0.000334   0.002690   0.003881  -0.005369
    20  H    0.000463  -0.000058   0.002727  -0.000342  -0.005374   0.003891
    21  H   -0.000320  -0.000004   0.000001   0.000001   0.001042   0.001045
    22  H    0.004940  -0.000000  -0.000000  -0.000000   0.000002   0.000002
    23  H   -0.090327  -0.000000  -0.000000   0.000000  -0.000000  -0.000000
    24  H   -0.001062   0.000000   0.000000   0.000000   0.000000   0.000000
    25  H    0.011828  -0.000000   0.000000  -0.000000  -0.000000   0.000000
    26  S    2.173428  -0.000000  -0.000000  -0.000000  -0.000000   0.000000
    27  O    0.350162  -0.000000  -0.000000  -0.000000  -0.000000  -0.000000
    28  O    0.557238  -0.000000   0.000000  -0.000000  -0.000000   0.000000
    29  H    0.245560  -0.000000   0.000000   0.000000   0.000000  -0.000000
    30  C   -1.204599  -0.000000   0.000000   0.000000   0.000000  -0.000000
    31  F   -0.016321   0.000000   0.000000  -0.000000  -0.000000   0.000000
    32  F    0.017500  -0.000000  -0.000000  -0.000000  -0.000000  -0.000000
    33  F    0.261225  -0.000000   0.000000  -0.000000  -0.000000  -0.000000
              19         20         21         22         23         24
     1  C    0.004565   0.006843  -0.001503  -0.000072   0.000011  -0.000001
     2  C   -0.054564  -0.058424  -0.000602  -0.000304   0.000017   0.000018
     3  C    0.423206   0.433631  -0.081621   0.007620   0.003286  -0.000279
     4  N   -0.056826  -0.058245   0.231681   0.030475   0.000188   0.001061
     5  C   -0.006651  -0.012983   0.035609   0.002138   0.029176  -0.003946
     6  O    0.000956   0.001152   0.008500   0.007428  -0.001791   0.000030
     7  N    0.000066   0.000350   0.032702   0.217704  -0.014722  -0.010420
     8  C   -0.003264  -0.005393   0.020200   0.002589   0.059146   0.079878
     9  C    0.002738   0.003456  -0.000234   0.078718   0.307142   0.032906
    10  C   -0.000725  -0.001374  -0.000374  -0.157751   0.031368   0.130726
    11  C   -0.000014   0.000020   0.000060   0.045922  -0.016217   0.043904
    12  C    0.000013   0.000005  -0.000110  -0.004777   0.001479   0.020589
    13  C    0.000290   0.000463  -0.000320   0.004940  -0.090327  -0.001062
    14  H   -0.000060  -0.000058  -0.000004  -0.000000  -0.000000   0.000000
    15  H   -0.000334   0.002727   0.000001  -0.000000  -0.000000   0.000000
    16  H    0.002690  -0.000342   0.000001  -0.000000   0.000000   0.000000
    17  H    0.003881  -0.005374   0.001042   0.000002  -0.000000   0.000000
    18  H   -0.005369   0.003891   0.001045   0.000002  -0.000000   0.000000
    19  H    0.491725  -0.034756   0.002767   0.000005  -0.000001   0.000000
    20  H   -0.034756   0.492461   0.002795   0.000005  -0.000000   0.000000
    21  H    0.002767   0.002795   0.344000   0.002490   0.000000   0.000005
    22  H    0.000005   0.000005   0.002490   0.344702  -0.000117   0.006381
    23  H   -0.000001  -0.000000   0.000000  -0.000117   0.413249  -0.000099
    24  H    0.000000   0.000000   0.000005   0.006381  -0.000099   0.489446
    25  H   -0.000000  -0.000000  -0.000000  -0.000010   0.000009  -0.004273
    26  S   -0.000000   0.000000  -0.000004   0.000362  -0.001648   0.001678
    27  O    0.000000  -0.000000  -0.000000   0.000001   0.000011   0.000197
    28  O   -0.000000   0.000000  -0.000000   0.000000   0.000005   0.000012
    29  H   -0.000000  -0.000000   0.000000   0.000002  -0.004368   0.000013
    30  C    0.000000  -0.000000   0.000000   0.000008   0.000254   0.000011
    31  F   -0.000000  -0.000000   0.000000  -0.000000  -0.000000  -0.000000
    32  F    0.000000  -0.000000  -0.000000  -0.000000  -0.000002   0.000000
    33  F    0.000000  -0.000000  -0.000000  -0.000000  -0.000006   0.000000
              25         26         27         28         29         30
     1  C    0.000000  -0.000011  -0.000000  -0.000000  -0.000000   0.000000
     2  C    0.000000  -0.000020  -0.000000  -0.000000   0.000002   0.000003
     3  C    0.000027  -0.002794  -0.000016  -0.000026  -0.000009   0.000166
     4  N    0.000007   0.000942   0.000007   0.000003   0.000008  -0.000058
     5  C    0.003542  -0.124710  -0.003297  -0.004556  -0.000684   0.012802
     6  O    0.000000  -0.000104  -0.000002  -0.000003   0.000234   0.000061
     7  N    0.000387   0.002280   0.000291  -0.000012  -0.000688  -0.000717
     8  C    0.020766  -1.252368  -0.132878  -0.093613  -0.008388   0.208683
     9  C    0.001226  -0.010381  -0.007887   0.064519  -0.145423  -0.204759
    10  C   -0.081176   1.886520   0.266877   0.086844  -0.041247  -0.210519
    11  C    0.306229  -3.522894  -0.799215  -0.662666   0.108518   1.227981
    12  C    0.045499  -2.053431  -0.168424  -0.364192   0.140532   0.911263
    13  C    0.011828   2.173428   0.350162   0.557238   0.245560  -1.204599
    14  H   -0.000000  -0.000000  -0.000000  -0.000000  -0.000000  -0.000000
    15  H    0.000000  -0.000000  -0.000000   0.000000   0.000000   0.000000
    16  H   -0.000000  -0.000000  -0.000000  -0.000000   0.000000   0.000000
    17  H   -0.000000  -0.000000  -0.000000  -0.000000   0.000000   0.000000
    18  H    0.000000   0.000000  -0.000000   0.000000  -0.000000  -0.000000
    19  H   -0.000000  -0.000000   0.000000  -0.000000  -0.000000   0.000000
    20  H   -0.000000   0.000000  -0.000000   0.000000  -0.000000  -0.000000
    21  H   -0.000000  -0.000004  -0.000000  -0.000000   0.000000   0.000000
    22  H   -0.000010   0.000362   0.000001   0.000000   0.000002   0.000008
    23  H    0.000009  -0.001648   0.000011   0.000005  -0.004368   0.000254
    24  H   -0.004273   0.001678   0.000197   0.000012   0.000013   0.000011
    25  H    0.417572  -0.000175   0.002252  -0.000685  -0.000126   0.000613
    26  S   -0.000175  17.862289   0.690618   0.670048   0.003631  -1.282620
    27  O    0.002252   0.690618   8.769761  -0.172473   0.000394  -0.272539
    28  O   -0.000685   0.670048  -0.172473   8.647515  -0.001912  -0.276394
    29  H   -0.000126   0.003631   0.000394  -0.001912   0.457342   0.003527
    30  C    0.000613  -1.282620  -0.272539  -0.276394   0.003527   5.930491
    31  F    0.000004  -0.132985  -0.013188  -0.006508   0.000005   0.271656
    32  F   -0.000020   0.143179   0.023970   0.015525  -0.000718   0.033077
    33  F   -0.000007   0.093937   0.017566   0.021616   0.001807   0.037695
              31         32         33
     1  C    0.000000  -0.000000  -0.000000
     2  C    0.000000  -0.000000   0.000000
     3  C    0.000000  -0.000002  -0.000003
     4  N   -0.000000   0.000000  -0.000000
     5  C    0.000050  -0.000362  -0.000769
     6  O    0.000000  -0.000001   0.000000
     7  N   -0.000001   0.000014  -0.000016
     8  C    0.003853  -0.011222  -0.005943
     9  C    0.000664   0.003616   0.056709
    10  C   -0.003685   0.018039   0.009857
    11  C    0.023152  -0.028478  -0.143183
    12  C    0.077126  -0.115439  -0.275949
    13  C   -0.016321   0.017500   0.261225
    14  H    0.000000  -0.000000  -0.000000
    15  H    0.000000  -0.000000   0.000000
    16  H   -0.000000  -0.000000  -0.000000
    17  H   -0.000000  -0.000000  -0.000000
    18  H    0.000000  -0.000000  -0.000000
    19  H   -0.000000   0.000000   0.000000
    20  H   -0.000000  -0.000000  -0.000000
    21  H    0.000000  -0.000000  -0.000000
    22  H   -0.000000  -0.000000  -0.000000
    23  H   -0.000000  -0.000002  -0.000006
    24  H   -0.000000   0.000000   0.000000
    25  H    0.000004  -0.000020  -0.000007
    26  S   -0.132985   0.143179   0.093937
    27  O   -0.013188   0.023970   0.017566
    28  O   -0.006508   0.015525   0.021616
    29  H    0.000005  -0.000718   0.001807
    30  C    0.271656   0.033077   0.037695
    31  F    9.129109  -0.044236  -0.045315
    32  F   -0.044236   9.205923  -0.028815
    33  F   -0.045315  -0.028815   9.242005
 Mulliken charges:
               1
     1  C   -0.689624
     2  C   -0.355159
     3  C   -0.124547
     4  N   -0.657696
     5  C    0.788998
     6  O   -0.597682
     7  N   -0.609495
     8  C    0.409930
     9  C    0.669367
    10  C   -1.543976
    11  C    0.059292
    12  C   -0.976797
    13  C    0.345803
    14  H    0.214181
    15  H    0.213443
    16  H    0.213824
    17  H    0.216195
    18  H    0.216708
    19  H    0.229662
    20  H    0.229150
    21  H    0.401874
    22  H    0.411536
    23  H    0.283958
    24  H    0.213226
    25  H    0.276510
    26  S    0.855231
    27  O   -0.552188
    28  O   -0.480286
    29  H    0.241989
    30  C    0.813914
    31  F   -0.243379
    32  F   -0.231552
    33  F   -0.242411
 Sum of Mulliken charges =  -0.00000
 Mulliken charges with hydrogens summed into heavy atoms:
               1
     1  C   -0.048176
     2  C    0.077744
     3  C    0.334266
     4  N   -0.255822
     5  C    0.788998
     6  O   -0.597682
     7  N   -0.197959
     8  C    0.409930
     9  C    0.953324
    10  C   -1.330750
    11  C    0.335802
    12  C   -0.976797
    13  C    0.587791
    26  S    0.855231
    27  O   -0.552188
    28  O   -0.480286
    30  C    0.813914
    31  F   -0.243379
    32  F   -0.231552
    33  F   -0.242411
 Electronic spatial extent (au):  <R**2>=          11880.7230
 Charge=              0.0000 electrons
 Dipole moment (field-independent basis, Debye):
    X=             -9.7941    Y=              1.1172    Z=              2.4969  Tot=             10.1689
 Quadrupole moment (field-independent basis, Debye-Ang):
   XX=           -120.5706   YY=           -118.9807   ZZ=           -132.5185
   XY=            -26.8931   XZ=              2.3798   YZ=              3.0819
 Traceless Quadrupole moment (field-independent basis, Debye-Ang):
   XX=              3.4527   YY=              5.0426   ZZ=             -8.4952
   XY=            -26.8931   XZ=              2.3798   YZ=              3.0819
 Octapole moment (field-independent basis, Debye-Ang**2):
  XXX=           -254.6708  YYY=             -0.9605  ZZZ=             12.5653  XYY=              3.6872
  XXY=            -31.9575  XXZ=             39.7121  XZZ=              5.4249  YZZ=            -15.4042
  YYZ=              7.7559  XYZ=             -0.6077
 Hexadecapole moment (field-independent basis, Debye-Ang**3):
 XXXX=         -12716.1233 YYYY=           -938.0929 ZZZZ=           -389.5855 XXXY=           -509.5307
 XXXZ=             61.6445 YYYX=           -177.2972 YYYZ=              7.8326 ZZZX=             62.5096
 ZZZY=             -2.4677 XXYY=          -2488.8882 XXZZ=          -2438.3965 YYZZ=           -235.3941
 XXYZ=              8.0357 YYXZ=            -13.0543 ZZXY=            -46.3758
 N-N= 1.697587617716D+03 E-N=-6.824214553424D+03  KE= 1.448451889849D+03
 Calling FoFJK, ICntrl=      2127 FMM=F ISym2X=0 I1Cent= 0 IOpClX= 0 NMat=1 NMatS=1 NMatT=0.
 ***** Axes restored to original set *****
 -------------------------------------------------------------------
 Center     Atomic                   Forces (Hartrees/Bohr)
 Number     Number              X              Y              Z
 -------------------------------------------------------------------
      1        6          -0.006047040    0.001552222   -0.000290940
      2        6           0.005114746   -0.005716693    0.000803567
      3        6          -0.005799801    0.007092281   -0.001176270
      4        7           0.011281995   -0.037603540    0.005237986
      5        6          -0.014906737    0.031510745   -0.004797711
      6        8           0.003190875    0.010654205   -0.001313086
      7        7           0.029436915   -0.027596634    0.003476759
      8        6          -0.016606762    0.002090085   -0.000166367
      9        6           0.006183627   -0.001418941    0.001178828
     10        6           0.003436948    0.011063472    0.000840171
     11        6           0.004901640   -0.004343945   -0.002096590
     12        6          -0.018174189    0.023368393   -0.023671844
     13        6          -0.002875180   -0.010166280    0.001501860
     14        1           0.006485459    0.009285232   -0.001111328
     15        1          -0.001225160   -0.003591477    0.010144796
     16        1          -0.001012256   -0.006110845   -0.008829283
     17        1           0.000953633    0.004314476    0.008266486
     18        1           0.001087619    0.002041466   -0.009061839
     19        1           0.001724833   -0.004766453   -0.009834543
     20        1           0.001591354   -0.001895857    0.010788463
     21        1          -0.003705455    0.016925232   -0.002229700
     22        1           0.006994792    0.015505111   -0.001964580
     23        1          -0.010094155   -0.002307669    0.000385588
     24        1          -0.000292625   -0.002236819    0.000665207
     25        1           0.003427838   -0.000337956   -0.001492554
     26       16           0.099413390   -0.127846149    0.132063740
     27        8          -0.046029010    0.045846979   -0.037465137
     28        8          -0.039692649    0.037193119   -0.052858075
     29        1          -0.001778617    0.003241414   -0.000404279
     30        6           0.014912188    0.045949822   -0.040494666
     31        9          -0.062872816   -0.005763296   -0.003041273
     32        9           0.011607941    0.012586235    0.043707010
     33        9           0.019366660   -0.038517936   -0.016760396
 -------------------------------------------------------------------
 Cartesian Forces:  Max     0.132063740 RMS     0.027650649

 GradGradGradGradGradGradGradGradGradGradGradGradGradGradGradGradGradGrad
 Berny optimization.
 FormGI is forming the generalized inverse of G from B-inverse, IUseBI=4.
 Internal  Forces:  Max     0.063105646 RMS     0.013732277
 Search for a local minimum.
 Step number   1 out of a maximum of  175
 All quantities printed in internal units (Hartrees-Bohrs-Radians)
 Mixed Optimization -- RFO/linear search
 Second derivative matrix not updated -- first step.
 ITU=  0
     Eigenvalues ---    0.00230   0.00329   0.00423   0.00425   0.00994
     Eigenvalues ---    0.01169   0.01435   0.01468   0.01636   0.01695
     Eigenvalues ---    0.01942   0.01982   0.02047   0.02085   0.02101
     Eigenvalues ---    0.02120   0.02128   0.02131   0.02139   0.02178
     Eigenvalues ---    0.03755   0.03924   0.04436   0.04933   0.05553
     Eigenvalues ---    0.05673   0.05783   0.07395   0.08034   0.08804
     Eigenvalues ---    0.08839   0.09179   0.11976   0.12668   0.16000
     Eigenvalues ---    0.16000   0.16000   0.16000   0.16000   0.16000
     Eigenvalues ---    0.16000   0.16000   0.16000   0.17812   0.21964
     Eigenvalues ---    0.22000   0.22000   0.22000   0.22004   0.22005
     Eigenvalues ---    0.22964   0.24000   0.24871   0.25000   0.25000
     Eigenvalues ---    0.25000   0.25000   0.25000   0.25000   0.25000
     Eigenvalues ---    0.25000   0.26446   0.29144   0.29806   0.32336
     Eigenvalues ---    0.32338   0.32402   0.32408   0.32500   0.32511
     Eigenvalues ---    0.32559   0.35634   0.35669   0.35736   0.36703
     Eigenvalues ---    0.37889   0.39654   0.40682   0.41304   0.42437
     Eigenvalues ---    0.42459   0.44216   0.45268   0.45965   0.46171
     Eigenvalues ---    0.48739   0.48813   0.48816   0.51154   0.52303
     Eigenvalues ---    0.65646   0.65877   0.95078
 RFO step:  Lambda=-9.24936816D-02 EMin= 2.30000000D-03
 Linear search not attempted -- first point.
 Maximum step size (   0.300) exceeded in Quadratic search.
    -- Step size scaled by   0.704
 Iteration  1 RMS(Cart)=  0.07522228 RMS(Int)=  0.00231444
 Iteration  2 RMS(Cart)=  0.00498679 RMS(Int)=  0.00096012
 Iteration  3 RMS(Cart)=  0.00001330 RMS(Int)=  0.00096010
 Iteration  4 RMS(Cart)=  0.00000005 RMS(Int)=  0.00096010
 Variable       Old X    -DE/DX   Delta X   Delta X   Delta X     New X
                                 (Linear)    (Quad)   (Total)
    R1        2.88352   0.00212   0.00000   0.00383   0.00383   2.88734
    R2        2.09832  -0.01101   0.00000  -0.01854  -0.01854   2.07978
    R3        2.09938  -0.01056   0.00000  -0.01780  -0.01780   2.08159
    R4        2.09920  -0.01051   0.00000  -0.01770  -0.01770   2.08149
    R5        2.89703  -0.00527   0.00000  -0.00967  -0.00967   2.88736
    R6        2.10115  -0.00892   0.00000  -0.01507  -0.01507   2.08608
    R7        2.10104  -0.00892   0.00000  -0.01507  -0.01507   2.08597
    R8        2.74526  -0.00138   0.00000  -0.00206  -0.00206   2.74320
    R9        2.10229  -0.01052   0.00000  -0.01780  -0.01780   2.08449
   R10        2.10233  -0.01048   0.00000  -0.01773  -0.01773   2.08460
   R11        2.57610  -0.00039   0.00000  -0.00045  -0.00045   2.57565
   R12        1.95071  -0.01701   0.00000  -0.02315  -0.02315   1.92756
   R13        2.30677   0.01079   0.00000   0.00728   0.00728   2.31405
   R14        2.58718   0.01388   0.00000   0.01616   0.01616   2.60335
   R15        2.72027  -0.03707   0.00000  -0.05333  -0.05333   2.66694
   R16        1.95043  -0.01629   0.00000  -0.02217  -0.02217   1.92826
   R17        2.67711  -0.01523   0.00000  -0.02068  -0.02068   2.65643
   R18        2.66292  -0.00473   0.00000  -0.00651  -0.00650   2.65642
   R19        2.64340  -0.00940   0.00000  -0.01189  -0.01190   2.63150
   R20        2.02996   0.00496   0.00000   0.00759   0.00759   2.03755
   R21        2.63954  -0.01276   0.00000  -0.01632  -0.01631   2.62323
   R22        2.04658   0.00231   0.00000   0.00362   0.00362   2.05021
   R23        2.64030  -0.00986   0.00000  -0.01238  -0.01238   2.62792
   R24        2.04497   0.00255   0.00000   0.00399   0.00399   2.04896
   R25        2.63846  -0.00057   0.00000  -0.00045  -0.00046   2.63799
   R26        3.39368  -0.01299   0.00000  -0.02561  -0.02561   3.36808
   R27        2.04602   0.00275   0.00000   0.00431   0.00431   2.05034
   R28        2.90434  -0.05525   0.00000  -0.05190  -0.05190   2.85243
   R29        2.90272  -0.05516   0.00000  -0.05166  -0.05166   2.85106
   R30        3.43238   0.01413   0.00000   0.02914   0.02914   3.46151
   R31        2.61160  -0.06311   0.00000  -0.07656  -0.07656   2.53504
   R32        2.61079  -0.04675   0.00000  -0.05664  -0.05664   2.55415
   R33        2.61083  -0.04609   0.00000  -0.05584  -0.05584   2.55499
    A1        1.91257   0.00338   0.00000   0.00981   0.00977   1.92234
    A2        1.92559   0.00218   0.00000   0.00588   0.00586   1.93145
    A3        1.92600   0.00221   0.00000   0.00594   0.00591   1.93191
    A4        1.89643  -0.00255   0.00000  -0.00669  -0.00672   1.88971
    A5        1.89704  -0.00259   0.00000  -0.00686  -0.00689   1.89015
    A6        1.90572  -0.00279   0.00000  -0.00853  -0.00854   1.89718
    A7        1.94147  -0.00097   0.00000  -0.00119  -0.00118   1.94028
    A8        1.90034   0.00141   0.00000   0.00515   0.00515   1.90549
    A9        1.90183   0.00130   0.00000   0.00472   0.00471   1.90654
   A10        1.91025  -0.00011   0.00000  -0.00101  -0.00102   1.90923
   A11        1.91099  -0.00008   0.00000  -0.00100  -0.00100   1.90999
   A12        1.89844  -0.00155   0.00000  -0.00678  -0.00679   1.89164
   A13        1.93742  -0.00413   0.00000  -0.00833  -0.00831   1.92911
   A14        1.90676   0.00261   0.00000   0.00777   0.00776   1.91452
   A15        1.90450   0.00278   0.00000   0.00846   0.00845   1.91295
   A16        1.90698   0.00071   0.00000   0.00063   0.00065   1.90763
   A17        1.90546   0.00072   0.00000   0.00085   0.00087   1.90633
   A18        1.90240  -0.00270   0.00000  -0.00948  -0.00951   1.89289
   A19        2.12694  -0.00647   0.00000  -0.01456  -0.01456   2.11238
   A20        2.07760  -0.00064   0.00000  -0.00352  -0.00352   2.07408
   A21        2.07864   0.00711   0.00000   0.01809   0.01809   2.09672
   A22        2.08117   0.01615   0.00000   0.03317   0.03317   2.11433
   A23        2.08475  -0.02539   0.00000  -0.05215  -0.05215   2.03260
   A24        2.11726   0.00924   0.00000   0.01899   0.01899   2.13625
   A25        2.23301  -0.00718   0.00000  -0.01616  -0.01616   2.21685
   A26        2.02771   0.00873   0.00000   0.02240   0.02240   2.05011
   A27        2.02245  -0.00155   0.00000  -0.00624  -0.00624   2.01621
   A28        2.17375  -0.00715   0.00000  -0.01467  -0.01468   2.15907
   A29        2.05335  -0.00369   0.00000  -0.00755  -0.00756   2.04579
   A30        2.05608   0.01084   0.00000   0.02222   0.02224   2.07832
   A31        2.10524  -0.00758   0.00000  -0.01641  -0.01641   2.08883
   A32        2.15600  -0.00545   0.00000  -0.01753  -0.01753   2.13847
   A33        2.02194   0.01303   0.00000   0.03394   0.03394   2.05588
   A34        2.11704  -0.00042   0.00000  -0.00091  -0.00089   2.11615
   A35        2.09861   0.00042   0.00000   0.00104   0.00103   2.09965
   A36        2.06753  -0.00000   0.00000  -0.00014  -0.00014   2.06739
   A37        2.09754  -0.00986   0.00000  -0.02137  -0.02137   2.07617
   A38        2.08198   0.00729   0.00000   0.01727   0.01727   2.09925
   A39        2.10367   0.00256   0.00000   0.00410   0.00410   2.10777
   A40        2.08559   0.01083   0.00000   0.02363   0.02360   2.10919
   A41        2.11066  -0.02159   0.00000  -0.04504  -0.04504   2.06562
   A42        2.08694   0.01076   0.00000   0.02141   0.02141   2.10835
   A43        2.10488  -0.00381   0.00000  -0.00715  -0.00717   2.09770
   A44        2.08409  -0.00065   0.00000  -0.00354  -0.00354   2.08056
   A45        2.09421   0.00446   0.00000   0.01070   0.01071   2.10492
   A46        1.88006   0.01551   0.00000   0.02598   0.01935   1.89941
   A47        1.87225   0.02142   0.00000   0.04132   0.03482   1.90706
   A48        2.17966  -0.04352   0.00000  -0.12353  -0.12841   2.05125
   A49        1.72731   0.03851   0.00000   0.17330   0.17181   1.89912
   A50        1.86890  -0.00407   0.00000  -0.01851  -0.02094   1.84796
   A51        1.88310  -0.00872   0.00000  -0.02747  -0.02909   1.85401
   A52        1.91246  -0.00899   0.00000  -0.01921  -0.01913   1.89333
   A53        1.91061   0.00755   0.00000   0.01607   0.01603   1.92664
   A54        1.91313   0.00670   0.00000   0.01396   0.01391   1.92704
   A55        1.90652   0.00045   0.00000   0.00056   0.00064   1.90717
   A56        1.90682   0.00040   0.00000  -0.00029  -0.00023   1.90659
   A57        1.91425  -0.00618   0.00000  -0.01121  -0.01137   1.90288
    D1        3.14039   0.00003   0.00000   0.00017   0.00017   3.14057
    D2        1.03387  -0.00014   0.00000  -0.00119  -0.00119   1.03267
    D3       -1.03437   0.00016   0.00000   0.00128   0.00128  -1.03309
    D4        1.05304  -0.00030   0.00000  -0.00138  -0.00139   1.05165
    D5       -1.05348  -0.00047   0.00000  -0.00275  -0.00276  -1.05624
    D6       -3.12172  -0.00017   0.00000  -0.00028  -0.00029  -3.12201
    D7       -1.05444   0.00032   0.00000   0.00157   0.00158  -1.05286
    D8        3.12222   0.00015   0.00000   0.00020   0.00021   3.12244
    D9        1.05399   0.00046   0.00000   0.00268   0.00268   1.05667
   D10       -3.13683  -0.00009   0.00000  -0.00048  -0.00048  -3.13730
   D11        1.04225  -0.00007   0.00000  -0.00106  -0.00105   1.04120
   D12       -1.03609   0.00002   0.00000   0.00084   0.00083  -1.03526
   D13       -1.03614   0.00097   0.00000   0.00453   0.00453  -1.03162
   D14       -3.14025   0.00099   0.00000   0.00395   0.00396  -3.13629
   D15        1.06460   0.00109   0.00000   0.00585   0.00583   1.07043
   D16        1.04333  -0.00104   0.00000  -0.00495  -0.00495   1.03838
   D17       -1.06078  -0.00102   0.00000  -0.00553  -0.00552  -1.06630
   D18       -3.13912  -0.00093   0.00000  -0.00363  -0.00364   3.14042
   D19        3.13512   0.00011   0.00000   0.00059   0.00059   3.13571
   D20       -0.00243   0.00006   0.00000   0.00023   0.00023  -0.00220
   D21       -1.04408   0.00122   0.00000   0.00540   0.00540  -1.03869
   D22        2.10154   0.00116   0.00000   0.00503   0.00504   2.10658
   D23        1.03496  -0.00121   0.00000  -0.00523  -0.00524   1.02972
   D24       -2.10260  -0.00127   0.00000  -0.00560  -0.00560  -2.10820
   D25        0.00255   0.00006   0.00000   0.00038   0.00038   0.00293
   D26       -3.13550  -0.00014   0.00000  -0.00094  -0.00094  -3.13644
   D27        3.14011   0.00010   0.00000   0.00069   0.00069   3.14080
   D28        0.00206  -0.00010   0.00000  -0.00062  -0.00062   0.00144
   D29        3.13478   0.00024   0.00000   0.00150   0.00150   3.13628
   D30       -0.00043   0.00021   0.00000   0.00126   0.00125   0.00082
   D31       -0.00320   0.00001   0.00000   0.00014   0.00014  -0.00305
   D32       -3.13841  -0.00001   0.00000  -0.00011  -0.00011  -3.13851
   D33        0.01363   0.00005   0.00000   0.00038   0.00039   0.01402
   D34       -3.12659   0.00013   0.00000   0.00087   0.00086  -3.12574
   D35       -3.13432   0.00011   0.00000   0.00071   0.00073  -3.13360
   D36        0.00864   0.00019   0.00000   0.00120   0.00119   0.00983
   D37       -3.13835  -0.00009   0.00000  -0.00054  -0.00057  -3.13892
   D38        0.00327   0.00012   0.00000   0.00078   0.00079   0.00406
   D39        0.00187  -0.00018   0.00000  -0.00105  -0.00106   0.00081
   D40       -3.13969   0.00003   0.00000   0.00027   0.00029  -3.13940
   D41        3.13804  -0.00032   0.00000  -0.00195  -0.00198   3.13605
   D42       -0.00204  -0.00004   0.00000  -0.00023  -0.00025  -0.00229
   D43       -0.00228  -0.00023   0.00000  -0.00146  -0.00151  -0.00380
   D44        3.14082   0.00005   0.00000   0.00026   0.00022   3.14104
   D45        0.00066  -0.00013   0.00000  -0.00067  -0.00060   0.00006
   D46        3.14120   0.00064   0.00000   0.00403   0.00411  -3.13788
   D47       -3.14097  -0.00032   0.00000  -0.00190  -0.00189   3.14033
   D48       -0.00043   0.00045   0.00000   0.00281   0.00282   0.00239
   D49        0.00016   0.00093   0.00000   0.00568   0.00564   0.00581
   D50       -3.14147   0.00033   0.00000   0.00199   0.00199  -3.13948
   D51        3.14027   0.00065   0.00000   0.00399   0.00394  -3.13897
   D52       -0.00136   0.00005   0.00000   0.00031   0.00029  -0.00107
   D53        0.00242  -0.00121   0.00000  -0.00732  -0.00731  -0.00489
   D54       -3.14053  -0.00225   0.00000  -0.01416  -0.01406   3.12860
   D55       -3.13914  -0.00061   0.00000  -0.00359  -0.00364   3.14041
   D56        0.00110  -0.00164   0.00000  -0.01043  -0.01039  -0.00929
   D57       -0.00282   0.00081   0.00000   0.00484   0.00483   0.00201
   D58        3.13983   0.00004   0.00000   0.00011   0.00007   3.13990
   D59        3.14010   0.00186   0.00000   0.01164   0.01180  -3.13128
   D60       -0.00043   0.00109   0.00000   0.00691   0.00704   0.00661
   D61        0.30822   0.02850   0.00000   0.10609   0.10733   0.41555
   D62       -1.53671  -0.03033   0.00000  -0.11747  -0.11928  -1.65599
   D63        2.52083  -0.00055   0.00000  -0.00701  -0.00660   2.51424
   D64       -2.83473   0.02746   0.00000   0.09924   0.10059  -2.73414
   D65        1.60353  -0.03137   0.00000  -0.12431  -0.12603   1.47750
   D66       -0.62211  -0.00159   0.00000  -0.01386  -0.01334  -0.63545
   D67       -3.07849   0.00065   0.00000   0.00179   0.00195  -3.07654
   D68       -0.98803   0.00034   0.00000   0.00058   0.00067  -0.98736
   D69        1.11233   0.00158   0.00000   0.00539   0.00561   1.11793
   D70       -0.86122  -0.01989   0.00000  -0.09168  -0.08988  -0.95110
   D71        1.22924  -0.02020   0.00000  -0.09289  -0.09117   1.13807
   D72       -2.95359  -0.01897   0.00000  -0.08808  -0.08623  -3.03982
   D73        0.98355   0.01826   0.00000   0.08473   0.08280   1.06635
   D74        3.07401   0.01794   0.00000   0.08352   0.08151  -3.12766
   D75       -1.10882   0.01918   0.00000   0.08833   0.08645  -1.02236
[...]
 017344,-0.03363583,-0.47691023,-0.22436711,-0.00780186,-0.00787877,-0.
 01905119,0.04560057,0.49744833,0.00000051,-0.00001077,-0.00000665,-0.0
 0000688,0.00001816,-0.00000164,0.00008319,-0.00005427,-0.00003077,-0.0
 0023574,-0.00002336,0.00000978,0.00047027,-0.00023517,-0.00006667,-0.0
 0015026,0.00013343,0.00009261,-0.00056647,0.00010880,0.00015358,0.0003
 6676,0.00051178,-0.00004290,-0.00071327,0.00031218,0.00008822,0.000627
 69,-0.00067911,-0.00077783,-0.00340888,-0.00026506,0.00113502,0.004111
 29,-0.00697246,0.00765791,0.00127234,-0.00102439,0.00015931,-0.0000077
 7,0.00000004,-0.00000176,0.00000147,-0.00000078,-0.00000087,-0.0000021
 8,0.00000453,0.00000844,0.00000381,0.00000483,0.00000920,0.00000031,-0
 .00000694,-0.00000016,-0.00002488,0.00001289,0.00002012,-0.00000061,-0
 .00000013,-0.00000003,0.00001280,0.00001456,-0.00002676,0.00005522,0.0
 0002102,-0.00007872,-0.00009400,-0.00005413,-0.00010842,-0.00028882,-0
 .00003922,-0.00021865,-0.00005332,0.00020429,0.00014264,-0.01991402,-0
 .22984682,-0.21463866,-0.00553861,0.01007944,0.01812797,0.02960710,0.2
 5570194,0.20025247,-0.00000016,-0.00000425,-0.00000156,-0.00000875,0.0
 0000705,0.00000405,0.00002226,-0.00002890,-0.00000219,-0.00008706,0.00
 012481,0.00001701,0.00035494,-0.00055493,-0.00001322,0.00004456,0.0003
 8805,0.00003599,0.00013850,-0.00138108,-0.00028908,-0.00535449,-0.0011
 0465,-0.00014231,-0.00224605,-0.02813301,-0.00477822,-0.00114767,0.000
 16661,0.00007152,-0.00394480,0.00331962,0.00041421,0.01008422,0.020953
 64,0.00349495,-0.07653703,-0.06881455,-0.01150809,-0.00000069,0.000002
 00,0.00000049,-0.00000134,0.00000056,-0.00000193,-0.00000136,-0.000000
 55,0.00000159,0.00000163,0.00000050,0.00000227,0.00000166,0.00000209,-
 0.00000202,-0.00001122,0.00000227,0.00000717,-0.00000665,0.00000182,-0
 .00000327,0.00003176,0.00001038,-0.00002575,-0.00041124,-0.00013518,0.
 00000428,0.00101466,0.00029639,0.00009371,0.00007828,-0.00003795,-0.00
 001380,0.00060568,0.00122453,0.00022337,0.00003457,0.00458810,0.001636
 95,0.00022171,-0.00087885,-0.00021329,-0.00023591,-0.00196834,-0.00047
 169,0.07765387,-0.00000046,0.00000054,-0.00000007,-0.00000077,0.000000
 23,0.00000080,-0.00000349,-0.00000015,-0.00000566,-0.00000926,0.000011
 43,0.00000756,0.00004639,-0.00009699,-0.00003093,0.00003448,0.00004864
 ,-0.00000773,0.00001385,-0.00007803,0.00000303,-0.00031334,0.00132194,
 -0.00124863,-0.00014355,-0.00123196,-0.00112470,0.00002631,0.00067075,
 0.00027221,0.00363133,-0.00050370,-0.00115875,-0.00495814,-0.01554538,
 -0.00325569,-0.06767650,-0.32587715,-0.04888825,0.00000023,0.00000002,
 0.00000003,0.00000002,-0.00000043,0.00000070,0.00000003,0.00000019,-0.
 00000035,0.00000020,0.00000007,-0.00000007,0.00000016,-0.00000082,0.00
 000034,-0.00000113,0.00000044,-0.00000026,-0.00000133,0.00000105,0.000
 00126,0.00000161,0.00000236,-0.00000061,-0.00002071,0.00002235,0.00006
 008,-0.00002161,0.00053519,0.00098502,-0.00005726,-0.00006596,0.000128
 44,-0.00041228,-0.00062567,-0.00018415,-0.00078264,-0.00278682,-0.0002
 7883,0.00017625,0.00054968,-0.00008435,-0.00168344,0.00095375,0.000394
 34,0.07213002,0.34271956,-0.00000049,-0.00000101,0.00000112,0.00000065
 ,0.00000017,0.00000122,-0.00000221,0.00000276,0.00002865,0.00000281,0.
 00000935,-0.00003362,-0.00003430,-0.00003894,0.00010726,-0.00004940,-0
 .00000490,0.00001806,-0.00000389,-0.00003866,-0.00014744,0.00005024,-0
 .00091277,0.00785429,-0.00013516,-0.00081475,0.00492958,0.00004206,0.0
 0024942,-0.00089268,0.00046329,-0.00099197,0.00562215,-0.00103575,-0.0
 0329881,0.00285091,-0.01125384,-0.04958483,-0.04890446,-0.00000006,-0.
 00000018,0.00000002,-0.00000043,0.00000136,-0.00000036,0.00000073,-0.0
 0000036,-0.00000170,-0.00000050,-0.00000228,-0.00000190,0.00000018,0.0
 0000197,-0.00000073,0.00000124,0.00000070,-0.00000387,-0.00000155,-0.0
 0000122,0.00000022,0.00000080,-0.00000629,-0.00000661,-0.00000004,0.00
 005017,-0.00029305,0.00014687,0.00078542,-0.00457597,-0.00000580,0.000
 09475,-0.00072606,-0.00004799,-0.00017535,0.00049397,0.00058333,0.0006
 6739,-0.00258484,-0.00050620,0.00005796,0.00014646,-0.00055154,-0.0004
 6688,-0.00082111,0.01172378,0.05440263,0.03681540,0.00000399,0.0000351
 9,0.00001293,-0.00000097,-0.00005652,-0.00000991,-0.00024103,0.0001147
 4,0.00000420,0.00063718,0.00027626,0.00006078,-0.00097950,-0.00045362,
 0.00011417,0.00043648,0.00029592,-0.00010298,0.00024663,-0.00008816,0.
 00008333,-0.00033099,-0.00028690,0.00029892,-0.00106602,0.00018750,-0.
 00157400,-0.00065120,0.00008712,-0.00137600,-0.00158076,0.00014097,0.0
 0103374,-0.00387173,-0.00489893,0.01422411,-0.00047300,-0.00145147,0.0
 0044495,0.00003553,0.00001206,0.00000552,-0.00001016,-0.00000800,-0.00
 000261,-0.00000465,-0.00001290,-0.00000928,-0.00000666,-0.00000240,-0.
 00000211,0.00000273,0.00001527,-0.00000422,0.00004461,-0.00002975,-0.0
 0002215,-0.00001569,-0.00001117,-0.00000625,-0.00002460,-0.00005679,-0
 .00002118,-0.00004259,-0.00001217,0.00004883,-0.00025070,-0.00001507,-
 0.00003376,-0.00009052,0.00001638,-0.00009592,0.00001893,-0.00040485,0
 .00074127,-0.03979558,-0.01215956,0.03562745,-0.00487869,0.01764421,-0
 .01928772,0.00264983,-0.00323837,-0.01017989,-0.00044538,0.00032219,0.
 00159931,0.57918207,-0.00000244,0.00003004,-0.00000062,0.00001697,-0.0
 0003102,-0.00000780,-0.00017735,0.00012979,-0.00001171,0.00045726,-0.0
 0005242,0.00001644,-0.00115689,0.00108430,0.00008535,0.00023993,-0.000
 69747,0.00003105,0.00140938,-0.00036645,-0.00000766,-0.00076321,-0.000
 58259,-0.00006878,0.00114263,0.00027850,0.00023740,-0.00071847,-0.0006
 0197,-0.00080762,0.00078518,0.00058677,0.00009150,-0.00136495,0.003372
 46,0.00313788,-0.00187785,0.00046299,0.00071257,0.00001577,0.00000021,
 0.00000136,0.00000145,-0.00001174,0.00000987,0.00000157,-0.00000409,-0
 .00000945,-0.00000642,0.00000421,-0.00001176,-0.00000201,-0.00000954,0
 .00001406,0.00004259,-0.00001929,-0.00002297,0.00001602,-0.00000845,0.
 00000723,-0.00004830,-0.00003055,0.00001077,-0.00010103,-0.00000330,0.
 00002038,0.00003342,0.00004515,-0.00011280,0.00003713,0.00000267,0.000
 06042,-0.00020090,-0.00108425,0.00122934,-0.01078446,-0.02740570,0.034
 45854,0.00594007,-0.01242912,0.01319932,0.00252076,-0.01640624,-0.0305
 9657,0.00038834,-0.00022303,-0.00114591,0.00103888,0.57045286,-0.00001
 858,-0.00009934,-0.00001409,-0.00002900,0.00016185,0.00007311,0.000531
 10,-0.00032396,0.00008586,-0.00182384,-0.00047210,-0.00040448,0.004101
 32,-0.00196949,-0.00004594,-0.00098330,0.00104901,-0.00010422,-0.00591
 595,-0.00023527,-0.00001225,0.00406113,0.00112231,0.00040179,-0.002133
 63,-0.00140653,-0.00138354,-0.00323006,0.00061339,-0.00134588,-0.00036
 688,0.00356172,0.00023124,-0.00598753,-0.00274272,0.01051565,0.0012863
 9,-0.00317856,-0.00074474,-0.00007061,-0.00001055,-0.00000171,0.000007
 94,0.00003184,-0.00000203,0.00001036,0.00001329,0.00000038,0.00001223,
 -0.00002068,-0.00001675,-0.00000010,-0.00000469,-0.00001184,-0.0001303
 9,0.00006090,0.00002721,-0.00003340,0.00003750,0.00001662,0.00009601,0
 .00020821,0.00015788,-0.00006662,0.00019749,0.00019101,-0.00020291,-0.
 00018880,0.00003665,-0.00053444,-0.00034785,0.00001329,0.00024680,-0.0
 0023506,0.00146234,0.02714350,0.03233392,-0.16327916,0.00673024,-0.015
 75153,0.01064287,-0.00115339,0.00834196,0.00743903,0.00035701,-0.00023
 572,0.00101017,0.00496584,0.00819844,0.52492045,-0.00000813,-0.0000592
 4,-0.00001263,-0.00001340,0.00009580,0.00002741,0.00035500,-0.00019688
 ,0.00001210,-0.00109601,-0.00030642,-0.00017562,0.00228280,-0.00073736
 ,-0.00011959,-0.00061988,0.00038128,0.00006625,-0.00282763,-0.00005832
 ,0.00013985,0.00216136,0.00072884,-0.00000682,-0.00078298,-0.00069317,
 -0.00043815,-0.00112876,0.00033578,-0.00033214,0.00011945,0.00146149,0
 .00063677,-0.00192213,-0.00147499,0.00567238,0.00090920,-0.00126029,0.
 00024508,-0.00004723,-0.00000998,-0.00000470,0.00000861,0.00001517,-0.
 00000061,0.00000512,0.00001367,0.00000944,0.00001007,-0.00000357,0.000
 00044,-0.00000106,-0.00001179,-0.00000225,-0.00008317,0.00004278,0.000
 03135,-0.00000761,0.00001698,0.00000822,0.00005718,0.00011404,0.000051
 46,0.00001169,0.00011085,-0.00000056,0.00002184,-0.00006239,-0.0000882
 7,-0.00016826,-0.00010001,-0.00009486,-0.00003391,0.00006873,0.0001174
 4,-0.03044919,-0.00748859,-0.00948360,0.00823166,-0.00467194,0.0033812
 3,0.00454263,0.00550899,0.00425564,0.00005054,-0.00013316,0.00000086,-
 0.30724385,-0.07523146,0.04302299,0.42269650,-0.00000246,-0.00002463,-
 0.00000400,-0.00000773,0.00003774,0.00001126,0.00014552,-0.00008711,0.
 00000820,-0.00044151,-0.00009143,-0.00006809,0.00097478,-0.00046412,-0
 .00004687,-0.00024710,0.00026431,0.00001428,-0.00127046,0.00002044,0.0
 0005053,0.00094988,0.00026386,0.00004275,-0.00045238,-0.00023662,-0.00
 028116,-0.00048836,0.00022531,-0.00016644,-0.00007036,0.00045384,0.000
 40347,-0.00086122,-0.00078771,0.00253733,0.00052917,-0.00074712,-0.000
 04991,-0.00001786,-0.00000297,-0.00000154,0.00000242,0.00000708,-0.000
 00188,0.00000144,0.00000486,0.00000429,0.00000427,-0.00000227,0.000001
 62,0.00000001,-0.00000195,-0.00000326,-0.00003495,0.00001698,0.0000137
 0,-0.00000634,0.00000705,0.00000186,0.00002745,0.00004418,0.00001786,0
 .00001366,0.00004218,0.00000382,-0.00001673,-0.00003377,-0.00001801,-0
 .00007461,-0.00003380,-0.00005034,0.00000120,0.00011273,-0.00002130,-0
 .01367090,-0.00236729,-0.00359872,0.00086324,0.00097387,-0.00013960,0.
 00204195,0.00460069,0.00372189,-0.00004133,-0.00000777,0.00022497,-0.0
 7630234,-0.09574571,0.01465303,0.10336011,0.10867740,0.00000696,0.0000
 4195,0.00000670,0.00001190,-0.00006825,-0.00002601,-0.00023453,0.00013
 859,-0.00002232,0.00077289,0.00019470,0.00015506,-0.00171614,0.0007790
 9,0.00003821,0.00041776,-0.00041529,0.00000633,0.00241655,0.00009443,-
 0.00008360,-0.00179129,-0.00053831,-0.00010790,0.00092191,0.00057821,0
 .00067594,0.00126546,-0.00027328,0.00060039,0.00018390,-0.00150720,-0.
 00054968,0.00198156,0.00152593,-0.00563400,-0.00066006,0.00148190,-0.0
 0008779,0.00003083,0.00000507,0.00000167,-0.00000418,-0.00001219,0.000
 00100,-0.00000379,-0.00000707,-0.00000296,-0.00000617,0.00000605,0.000
 00366,0.00000013,0.00000427,0.00000388,0.00005772,-0.00002722,-0.00001
 629,0.00001181,-0.00001394,-0.00000623,-0.00004139,-0.00008590,-0.0000
 5265,0.00001514,-0.00008829,-0.00004573,0.00006211,0.00007323,0.000042
 77,0.00019466,0.00010643,0.00005210,-0.00000623,0.00009254,-0.00046526
 ,0.02729571,0.00701722,0.00632301,-0.00313506,0.00184213,-0.00133490,-
 0.00167814,-0.00189681,-0.00153130,-0.00000977,0.00007384,-0.00041512,
 0.04870894,0.01636259,-0.08515761,-0.02281239,-0.00453826,0.06605041,-
 0.00000138,-0.00001263,-0.00000358,-0.00000258,0.00002003,0.00000315,0
 .00007841,-0.00004336,0.00000350,-0.00022354,-0.00006576,-0.00002032,0
 .00042443,-0.00006290,-0.00004234,-0.00012979,0.00002868,0.00003041,-0
 .00035499,0.00001374,0.00000575,0.00020204,0.00056376,-0.00005600,-0.0
 0029246,-0.00033457,0.00003764,0.00051281,0.00004108,0.00031667,-0.000
 33684,0.00013152,0.00029567,-0.00016058,0.00028042,-0.00045921,0.00076
 830,-0.00013147,0.00015965,-0.00001045,-0.00000259,-0.00000142,0.00000
 233,0.00000303,-0.00000018,0.00000087,0.00000353,0.00000296,0.00000261
 ,0.00000015,0.00000140,-0.00000015,-0.00000318,-0.00000008,-0.00001723
 ,0.00000983,0.00000788,0.00000089,0.00000324,0.00000116,0.00001279,0.0
 0002065,0.00000627,0.00001269,0.00001447,-0.00001372,0.00004296,-0.000
 01254,-0.00000525,-0.00000061,-0.00001074,-0.00001203,-0.00008453,0.00
 013635,-0.00031779,0.00330515,0.00231942,0.00027586,0.00125491,-0.0012
 8477,0.00092619,0.00053100,-0.00004621,0.00112339,-0.00002741,0.000014
 08,-0.00016261,-0.07467361,-0.02165842,-0.01660947,-0.02519957,-0.0501
 0109,-0.03118132,0.08586225,0.00000364,-0.00000077,0.00000075,-0.00000
 363,-0.00000547,-0.00000818,0.00001432,-0.00001667,-0.00001225,0.00002
 612,0.00007800,0.00005001,-0.00001876,-0.00018832,-0.00004012,0.000016
 91,0.00014698,0.00002522,0.00015964,0.00017516,0.00003170,-0.00020072,
 0.00019009,-0.00003049,-0.00023721,0.00009044,-0.00000277,0.00076517,0
 .00047649,0.00047552,0.00042664,-0.00081750,0.00016952,0.00018456,0.00
 149216,-0.00036566,0.00045857,-0.00008872,0.00008896,0.00000168,0.0000
 0102,-0.00000069,-0.00000106,0.00000049,-0.00000381,-0.00000244,0.0000
 0083,0.00000531,0.00000166,0.00000197,0.00000862,0.00000076,0.00000308
 ,-0.00000380,-0.00000347,0.00000182,0.00000913,-0.00000149,-0.00000180
 ,-0.00000497,0.00000892,-0.00001374,-0.00003050,0.00005262,-0.00001999
 ,-0.00004632,0.00001912,0.00000628,-0.00000974,0.00013909,0.00006621,-
 0.00003460,0.00001814,0.00050448,-0.00082649,-0.00273540,-0.01674867,-
 0.00053903,-0.00180709,0.00790038,0.00017896,0.00114318,0.00111950,-0.
 00491810,-0.00033571,0.00012503,0.00019481,-0.02356256,-0.21189057,-0.
 12012863,-0.03876975,-0.02795858,-0.02101634,0.04305201,0.31628628,0.0
 0000709,0.00002756,0.00000394,0.00000586,-0.00004746,-0.00002607,-0.00
 013774,0.00008217,-0.00003895,0.00051366,0.00017728,0.00013969,-0.0010
 8508,0.00034653,-0.00002425,0.00029161,-0.00016310,0.00006338,0.001511
 70,0.00011973,0.00010325,-0.00097816,-0.00044338,-0.00020696,0.0005374
 5,0.00052945,0.00023776,0.00070335,0.00036681,0.00030469,0.00151782,-0
 .00103995,-0.00043458,0.00123056,0.00307873,-0.00010566,-0.00044950,0.
 00053715,0.00005136,0.00002064,0.00000380,-0.00000017,-0.00000282,-0.0
 0000987,-0.00000142,-0.00000464,-0.00000293,0.00000391,-0.00000211,0.0
 0000823,0.00001079,0.00000055,0.00000177,0.00000207,0.00003196,-0.0000
 1538,0.00000047,0.00000753,-0.00001327,-0.00000780,-0.00002326,-0.0000
 6283,-0.00006577,0.00003018,-0.00005098,-0.00009043,0.00002596,0.00004
 996,-0.00005067,0.00026664,0.00014563,-0.00002776,-0.00020153,0.000077
 97,-0.00053888,-0.00933067,-0.03818468,-0.00759004,-0.00071166,0.00776
 976,-0.00054960,0.00282564,-0.00428201,-0.01505924,-0.00042529,0.00010
 752,-0.00014072,-0.01900398,-0.12344212,-0.18536857,-0.01636949,-0.011
 47087,0.00870094,0.03347086,0.17012850,0.18317049,-0.00000164,-0.00000
 686,-0.00000451,0.00000301,0.00001528,-0.00000048,0.00005185,-0.000015
 38,-0.00000885,-0.00014099,-0.00009802,-0.00001274,0.00015996,0.000303
 95,-0.00002817,-0.00009976,-0.00020023,0.00005855,0.00007907,-0.000036
 51,0.00000360,0.00019381,-0.00029625,-0.00024127,0.00088676,0.00000614
 ,0.00046170,-0.00032463,-0.00014630,0.00014081,0.00066344,0.00048160,0
 .00020386,0.00068094,-0.00073681,-0.00090260,-0.00005940,0.00036599,0.
 00039100,-0.00000911,-0.00000380,-0.00000189,0.00000392,-0.00000008,0.
 00000271,0.00000154,0.00000405,0.00000228,0.00000125,0.00000232,-0.000
 00021,-0.00000119,-0.00000793,0.00000452,-0.00000925,0.00000733,0.0000
 0533,0.00000786,0.00000108,0.00000342,0.00000144,0.00001436,0.00000394
 ,-0.00000544,0.00001215,-0.00002625,0.00011447,0.00003812,-0.00002951,
 0.00002577,0.00001731,-0.00000545,-0.00016393,-0.00018405,-0.00009331,
 -0.00467322,0.00836673,0.00243586,0.00092319,0.00141540,-0.00265480,0.
 00203423,-0.00310890,-0.00033453,0.00012839,-0.00017808,-0.00082438,-0
 .14658008,0.10000680,-0.05328277,-0.06983092,0.03519264,-0.02107551,0.
 00850126,0.02118652,0.00572685,0.20743742,-0.00000051,-0.00001730,0.00
 000031,-0.00001026,0.00001878,0.00001085,0.00008541,-0.00006685,0.0000
 1848,-0.00026220,0.00001754,-0.00003944,0.00070180,-0.00068643,0.00000
 134,-0.00015137,0.00042229,-0.00005701,-0.00104256,0.00014725,-0.00001
 682,0.00066865,0.00011531,0.00001044,-0.00068530,0.00023673,-0.0001454
 1,-0.00028901,0.00035656,0.00010237,-0.00002968,0.00017348,0.00001537,
 -0.00157107,0.00128142,0.00064903,-0.00027694,-0.00145478,-0.00025799,
 -0.00000786,0.00000087,0.00000048,-0.00000169,0.00000749,-0.00000507,-
 0.00000029,0.00000043,0.00000185,0.00000271,-0.00000477,0.00000209,0.0
 0000118,0.00000707,-0.00000848,-0.00002243,0.00000876,0.00000721,-0.00
 001194,0.00000630,-0.00000229,0.00002601,0.00002184,0.00001158,0.00003
 338,0.00001034,0.00003193,-0.00012323,-0.00008331,0.00003432,-0.000065
 53,-0.00003812,0.00001110,0.00025095,0.00036105,-0.00012238,0.01950066
 ,-0.01797470,-0.00453537,-0.00024519,-0.00388006,0.00833952,-0.0028614
 9,0.00836339,0.00348319,-0.00018752,0.00008065,0.00074132,0.10286484,-
 0.20884644,0.07676662,0.01901481,0.01284033,0.00007018,0.02711422,-0.0
 7091591,-0.00432971,-0.16241858,0.27949079,0.00000378,0.00002620,0.000
 00221,0.00000977,-0.00003743,-0.00002155,-0.00013172,0.00008889,-0.000
 03230,0.00044415,0.00008627,0.00010442,-0.00102693,0.00060231,-0.00001
 857,0.00026920,-0.00034434,0.00007183,0.00143531,-0.00003582,0.0000556
 4,-0.00095767,-0.00016056,-0.00011212,0.00055634,-0.00003330,0.0001382
 5,0.00072902,-0.00020856,0.00014592,-0.00008754,-0.00058884,-0.0001279
 1,0.00228908,-0.00144629,-0.00080735,0.00057883,0.00140600,-0.00007518
 ,0.00001643,0.00000174,-0.00000033,-0.00000046,-0.00001024,0.00000250,
 -0.00000219,-0.00000220,0.00000045,-0.00000272,0.00000752,0.00000397,-
 0.00000057,-0.00000338,0.00000675,0.00003207,-0.00001423,-0.00000521,0
 .00001103,-0.00001121,-0.00000286,-0.00002873,-0.00004691,-0.00003954,
 -0.00000735,-0.00002870,-0.00006564,0.00009514,0.00008613,-0.00002798,
 0.00011498,0.00008763,-0.00002983,-0.00025915,-0.00015594,-0.00025484,
 -0.02326263,0.02268282,0.00208797,-0.00143416,0.00869139,-0.01051470,0
 .00248337,-0.00368247,-0.00188413,-0.00018686,0.00006698,-0.00032922,-
 0.05624232,0.07836124,-0.11933275,-0.00773723,-0.00125062,0.01287729,0
 .01221691,-0.02334449,0.01753480,0.07008280,-0.08078961,0.10065000\\-0
 .00000042,-0.00000053,0.00000129,0.00000005,-0.00000035,-0.00000005,0.
 00000133,0.00000157,-0.00000054,0.00000130,-0.00000122,0.00000662,-0.0
 0000688,0.00000510,-0.00000079,0.00000073,-0.00000228,0.00000040,0.000
 00568,-0.00000486,-0.00000415,-0.00000283,0.00000025,0.00000561,-0.000
 00166,-0.00000217,-0.00000066,0.00000098,0.00000034,-0.00000257,-0.000
 00100,0.00000003,-0.00000262,0.00000188,-0.00000156,-0.00000104,-0.000
 00041,0.00000215,0.00000231,0.00000007,0.00000041,0.00000038,-0.000000
 33,0.00000005,0.00000222,0.00000011,-0.00000145,0.00000171,0.00000001,
 0.00000077,-0.00000046,0.00000038,-0.00000069,-0.00000055,0.00000068,-
 0.00000244,0.00000116,0.00000018,0.00000056,0.00000156,0.00000086,-0.0
 0000026,-0.00000288,0.00000021,0.00000083,-0.00000241,-0.00000014,-0.0
 0000007,0.00000127,-0.00000004,0.00000033,-0.00000354,0.00000040,-0.00
 000007,-0.00000246,-0.00000326,-0.00000190,0.00000009,0.,0.00000166,-0
 .00000365,0.00000192,-0.00000044,0.00000173,-0.00000070,-0.00000180,0.
 00000185,0.00000101,0.00000251,0.00000114,-0.00000168,0.00000344,-0.00
 000125,-0.00000089,0.00000234,-0.00000125,0.00000245,-0.00000025,0.000
 00152\\\@


 ABOVE ALL I AM AN OPTIMIST FOR NUMBER THEORY,
 AND I HOLD THE HOPE THAT WE MAY NOT BE FAR FROM
 A TIME WHEN IRREFUTABLE ARITHMETIC WILL CELEBRATE
 ITS TRIUMPHS IN PHYSICS AND CHEMISTRY.
   -- HERMANN MINKOWSKI, 1905
 Job cpu time:       0 days  4 hours 34 minutes 27.1 seconds.
 File lengths (MBytes):  RWF=    627 Int=      0 D2E=      0 Chk=     14 Scr=      1
 Normal termination of Gaussian 09 at Tue Oct 30 16:04:04 2018.
WARNING: pbs_rusage is deprecated and values produced may not be accurate


=============================================================================
                                     Resource usage:
                                       CPU time:              25:03:58
   JobId:    1827609.r-man2            Elapsed time:          06:17:23
   Project:             q95            Requested time:        40:00:00
   Service Units:     25.16 
                                       Max physical memory:      857MB
                                       Max virtual memory:      1947MB
                                       Requested memory:           0MB

                                       Number of cpus:               4

                                       Max jobfs disk use:       0.6GB
                                       Requested jobfs:         20.0GB
=============================================================================

