 Entering Gaussian System, Link 0=/apps/gaussian/g09e01/g09/g09
 AtFile(1): /home/507/hio507/Basis/6-31pGd.gbs
 Initial command:
 /apps/gaussian/g09e01/g09/l1.exe "/jobfs/local/5880889.r-man2/Gau-25051.inp" -scrdir="/jobfs/local/5880889.r-man2/"
 Entering Link 1 = /apps/gaussian/g09e01/g09/l1.exe PID=     25052.
  
 Copyright (c) 1988,1990,1992,1993,1995,1998,2003,2009,2015,
            Gaussian, Inc.  All Rights Reserved.
  
 This is part of the Gaussian(R) 09 program.  It is based on
 the Gaussian(R) 03 system (copyright 2003, Gaussian, Inc.),
 the Gaussian(R) 98 system (copyright 1998, Gaussian, Inc.),
 the Gaussian(R) 94 system (copyright 1995, Gaussian, Inc.),
 the Gaussian 92(TM) system (copyright 1992, Gaussian, Inc.),
 the Gaussian 90(TM) system (copyright 1990, Gaussian, Inc.),
 the Gaussian 88(TM) system (copyright 1988, Gaussian, Inc.),
 the Gaussian 86(TM) system (copyright 1986, Carnegie Mellon
 University), and the Gaussian 82(TM) system (copyright 1983,
 Carnegie Mellon University). Gaussian is a federally registered
 trademark of Gaussian, Inc.
  
 This software contains proprietary and confidential information,
 including trade secrets, belonging to Gaussian, Inc.
  
 This software is provided under written license and may be
 used, copied, transmitted, or stored only in accord with that
 written license.
  
 The following legend is applicable only to US Government
 contracts under FAR:
  
                    RESTRICTED RIGHTS LEGEND
  
 Use, reproduction and disclosure by the US Government is
 subject to restrictions as set forth in subparagraphs (a)
 and (c) of the Commercial Computer Software - Restricted
 Rights clause in FAR 52.227-19.
  
 Gaussian, Inc.
 340 Quinnipiac St., Bldg. 40, Wallingford CT 06492
  
  
 ---------------------------------------------------------------
 Warning -- This program may not be used in any manner that
 competes with the business of Gaussian, Inc. or will provide
 assistance to any competitor of Gaussian, Inc.  The licensee
 of this program is prohibited from giving any competitor of
 Gaussian, Inc. access to this program.  By using this program,
 the user acknowledges that Gaussian, Inc. is engaged in the
 business of creating and licensing software in the field of
 computational chemistry and represents and warrants to the
 licensee that it is not a competitor of Gaussian, Inc. and that
 it will not use this program in any manner prohibited above.
 ---------------------------------------------------------------
  

 Cite this work as:
 Gaussian 09, Revision E.01,
 M. J. Frisch, G. W. Trucks, H. B. Schlegel, G. E. Scuseria, 
 M. A. Robb, J. R. Cheeseman, G. Scalmani, V. Barone, B. Mennucci, 
 G. A. Petersson, H. Nakatsuji, M. Caricato, X. Li, H. P. Hratchian, 
 A. F. Izmaylov, J. Bloino, G. Zheng, J. L. Sonnenberg, M. Hada, 
 M. Ehara, K. Toyota, R. Fukuda, J. Hasegawa, M. Ishida, T. Nakajima, 
 Y. Honda, O. Kitao, H. Nakai, T. Vreven, J. A. Montgomery, Jr., 
 J. E. Peralta, F. Ogliaro, M. Bearpark, J. J. Heyd, E. Brothers, 
 K. N. Kudin, V. N. Staroverov, T. Keith, R. Kobayashi, J. Normand, 
 K. Raghavachari, A. Rendell, J. C. Burant, S. S. Iyengar, J. Tomasi, 
 M. Cossi, N. Rega, J. M. Millam, M. Klene, J. E. Knox, J. B. Cross, 
 V. Bakken, C. Adamo, J. Jaramillo, R. Gomperts, R. E. Stratmann, 
 O. Yazyev, A. J. Austin, R. Cammi, C. Pomelli, J. W. Ochterski, 
 R. L. Martin, K. Morokuma, V. G. Zakrzewski, G. A. Voth, 
 P. Salvador, J. J. Dannenberg, S. Dapprich, A. D. Daniels, 
 O. Farkas, J. B. Foresman, J. V. Ortiz, J. Cioslowski, 
 and D. J. Fox, Gaussian, Inc., Wallingford CT, 2013.
 
 ******************************************
 Gaussian 09:  ES64L-G09RevE.01 30-Nov-2015
                19-Feb-2019 
 ******************************************
 %chk=4SulfOxyCF3_EtO.M062X_6-31pGd_opt_water.chk
 %mem=196608000
 %nproc=8
 Will use up to    8 processors via shared memory.
 ----------------------------------------------------------------------
 # M062X/Gen 6D SCF=Tight INT(grid=ultrafine) OPT IOP(2/17=4) SCRF=(SMD
 ,Solvent=h2o) maxdisk=3221225472
 ----------------------------------------------------------------------
 1/14=-1,18=20,19=15,26=4,38=1/1,3;
 2/9=110,12=2,17=4,18=5,40=1/2;
 3/5=7,8=2,11=2,16=1,25=1,30=1,70=32201,71=1,72=1,74=-55,75=-5/1,2,3;
 4//1;
 5/5=2,32=2,38=5,53=1/2;
 6/7=2,8=2,9=2,10=2,28=1/1;
 7//1,2,3,16;
 1/14=-1,18=20,19=15,26=4/3(2);
 2/9=110,17=4/2;
 99//99;
 2/9=110,17=4/2;
 3/5=7,6=1,8=2,11=2,16=1,25=1,30=1,70=32205,71=1,72=1,74=-55,75=-5,82=7/1,2,3;
 4/5=5,16=3,69=1/1;
 5/5=2,32=2,38=5,53=1/2;
 7//1,2,3,16;
 1/14=-1,18=20,19=15,26=4/3(-5);
 2/9=110,17=4/2;
 6/7=2,8=2,9=2,10=2,19=2,28=1/1;
 99/9=1/99;
 ---------------------------------------
 4SulfOxyCF3_EtO.M062X_6-31pGd_opt_water
 ---------------------------------------
 Symbolic Z-matrix:
 Charge = -1 Multiplicity = 1
 C                    -2.21487   2.55808  -0.31091 
 C                    -0.93532   1.76313  -0.06794 
 C                     0.30651   2.63885  -0.26441 
 N                     1.5256    1.88057  -0.03571 
 C                     2.75638   2.45591  -0.16225 
 O                     2.82967   3.63284  -0.47648 
 N                     3.88466   1.70563   0.05312 
 C                     5.25712   2.14224  -0.04121 
 C                     5.65667   3.48017  -0.28841 
 C                     6.27335   1.17847   0.12597 
 C                     7.62456   1.52517   0.04605 
 C                     7.99746   2.84796  -0.2015 
 C                     7.01068   3.82026  -0.36541 
 H                    -3.09621   1.89909  -0.16319 
 H                    -2.23435   2.9505   -1.35004 
 H                    -2.28247   3.4078    0.40148 
 H                    -0.90204   0.9085   -0.77839 
 H                    -0.95015   1.36661   0.97056 
 H                     0.26796   3.49304   0.44723 
 H                     0.31166   3.03371  -1.30446 
 H                     1.44573   0.77962   0.25309 
 H                     3.71787   0.60582   0.33046 
 H                     4.9682    4.29307  -0.42194 
 H                     6.02765   0.14303   0.31631 
 H                     8.37759   0.75901   0.17792 
 S                     9.7278    3.31461  -0.30727 
 O                     10.53     2.05235  -0.66094 
 O                     10.23238   3.52725   1.12789 
 H                     7.29041   4.8491   -0.5538 
 C                     10.3768   4.66599  -1.33318 
 F                     11.75544   4.69594  -1.24203 
 F                     10.01198   4.46054  -2.6498 
 F                     9.86483   5.8708   -0.89134 
 O                     1.349    -1.0997    1.12266 
 O                     3.56882  -1.27054   1.21065 
 C                     2.4747   -1.77018   1.44418 
 C                     2.35767  -3.12485   2.09036 
 C                     3.71147  -3.76173   2.40293 
 H                     1.79359  -3.79667   1.4088 
 H                     1.78599  -3.01772   3.03691 
 H                     4.29632  -3.90354   1.4691 
 H                     3.55469  -4.75322   2.87774 
 H                     4.28726  -3.11994   3.10365 
 
 Add virtual bond connecting atoms O34        and H21        Dist= 3.92D+00.
 Add virtual bond connecting atoms O35        and H22        Dist= 3.93D+00.

 GradGradGradGradGradGradGradGradGradGradGradGradGradGradGradGradGradGrad
 Berny optimization.
 Initialization pass.
                           ----------------------------
                           !    Initial Parameters    !
                           ! (Angstroms and Degrees)  !
 --------------------------                            --------------------------
 ! Name  Definition              Value          Derivative Info.                !
 --------------------------------------------------------------------------------
 ! R1    R(1,2)                  1.5259         estimate D2E/DX2                !
 ! R2    R(1,14)                 1.1103         estimate D2E/DX2                !
 ! R3    R(1,15)                 1.1109         estimate D2E/DX2                !
 ! R4    R(1,16)                 1.1109         estimate D2E/DX2                !
 ! R5    R(2,3)                  1.5322         estimate D2E/DX2                !
 ! R6    R(2,17)                 1.1119         estimate D2E/DX2                !
 ! R7    R(2,18)                 1.1117         estimate D2E/DX2                !
 ! R8    R(3,4)                  1.4538         estimate D2E/DX2                !
 ! R9    R(3,19)                 1.1125         estimate D2E/DX2                !
 ! R10   R(3,20)                 1.1125         estimate D2E/DX2                !
 ! R11   R(4,5)                  1.3645         estimate D2E/DX2                !
 ! R12   R(4,21)                 1.141          estimate D2E/DX2                !
 ! R13   R(5,6)                  1.2204         estimate D2E/DX2                !
 ! R14   R(5,7)                  1.372          estimate D2E/DX2                !
 ! R15   R(7,8)                  1.4433         estimate D2E/DX2                !
 ! R16   R(7,22)                 1.1464         estimate D2E/DX2                !
 ! R17   R(8,9)                  1.418          estimate D2E/DX2                !
 ! R18   R(8,10)                 1.4105         estimate D2E/DX2                !
 ! R19   R(9,13)                 1.3982         estimate D2E/DX2                !
 ! R20   R(9,23)                 1.0736         estimate D2E/DX2                !
 ! R21   R(10,11)                1.3973         estimate D2E/DX2                !
 ! R22   R(10,24)                1.0811         estimate D2E/DX2                !
 ! R23   R(11,12)                1.3965         estimate D2E/DX2                !
 ! R24   R(11,25)                1.0823         estimate D2E/DX2                !
 ! R25   R(12,13)                1.395          estimate D2E/DX2                !
 ! R26   R(12,26)                1.7953         estimate D2E/DX2                !
 ! R27   R(13,29)                1.0827         estimate D2E/DX2                !
 ! R28   R(21,34)                2.073          estimate D2E/DX2                !
 ! R29   R(22,35)                2.0779         estimate D2E/DX2                !
 ! R30   R(26,27)                1.5368         estimate D2E/DX2                !
 ! R31   R(26,28)                1.5361         estimate D2E/DX2                !
 ! R32   R(26,30)                1.8166         estimate D2E/DX2                !
 ! R33   R(30,31)                1.382          estimate D2E/DX2                !
 ! R34   R(30,32)                1.3816         estimate D2E/DX2                !
 ! R35   R(30,33)                1.3816         estimate D2E/DX2                !
 ! R36   R(34,36)                1.3491         estimate D2E/DX2                !
 ! R37   R(35,36)                1.2253         estimate D2E/DX2                !
 ! R38   R(36,37)                1.5054         estimate D2E/DX2                !
 ! R39   R(37,38)                1.5284         estimate D2E/DX2                !
 ! R40   R(37,39)                1.1109         estimate D2E/DX2                !
 ! R41   R(37,40)                1.111          estimate D2E/DX2                !
 ! R42   R(38,41)                1.1109         estimate D2E/DX2                !
 ! R43   R(38,42)                1.1104         estimate D2E/DX2                !
 ! R44   R(38,43)                1.1111         estimate D2E/DX2                !
 ! A1    A(2,1,14)             109.587          estimate D2E/DX2                !
 ! A2    A(2,1,15)             110.3455         estimate D2E/DX2                !
 ! A3    A(2,1,16)             110.3293         estimate D2E/DX2                !
 ! A4    A(14,1,15)            108.6732         estimate D2E/DX2                !
 ! A5    A(14,1,16)            108.6842         estimate D2E/DX2                !
 ! A6    A(15,1,16)            109.1822         estimate D2E/DX2                !
 ! A7    A(1,2,3)              111.1908         estimate D2E/DX2                !
 ! A8    A(1,2,17)             108.8934         estimate D2E/DX2                !
 ! A9    A(1,2,18)             108.8676         estimate D2E/DX2                !
 ! A10   A(3,2,17)             109.4585         estimate D2E/DX2                !
 ! A11   A(3,2,18)             109.5389         estimate D2E/DX2                !
 ! A12   A(17,2,18)            108.8524         estimate D2E/DX2                !
 ! A13   A(2,3,4)              111.184          estimate D2E/DX2                !
 ! A14   A(2,3,19)             109.1925         estimate D2E/DX2                !
 ! A15   A(2,3,20)             109.0558         estimate D2E/DX2                !
 ! A16   A(4,3,19)             109.2035         estimate D2E/DX2                !
 ! A17   A(4,3,20)             109.1667         estimate D2E/DX2                !
 ! A18   A(19,3,20)            109.0064         estimate D2E/DX2                !
 ! A19   A(3,4,5)              121.4579         estimate D2E/DX2                !
 ! A20   A(3,4,21)             118.9734         estimate D2E/DX2                !
 ! A21   A(5,4,21)             119.5685         estimate D2E/DX2                !
 ! A22   A(4,5,6)              118.9925         estimate D2E/DX2                !
 ! A23   A(4,5,7)              119.7782         estimate D2E/DX2                !
 ! A24   A(6,5,7)              121.2271         estimate D2E/DX2                !
 ! A25   A(5,7,8)              127.3234         estimate D2E/DX2                !
 ! A26   A(5,7,22)             116.2923         estimate D2E/DX2                !
 ! A27   A(8,7,22)             116.382          estimate D2E/DX2                !
 ! A28   A(7,8,9)              124.3843         estimate D2E/DX2                !
 ! A29   A(7,8,10)             118.0771         estimate D2E/DX2                !
 ! A30   A(9,8,10)             117.5384         estimate D2E/DX2                !
 ! A31   A(8,9,13)             120.7944         estimate D2E/DX2                !
 ! A32   A(8,9,23)             123.7379         estimate D2E/DX2                !
 ! A33   A(13,9,23)            115.4667         estimate D2E/DX2                !
 ! A34   A(8,10,11)            121.3594         estimate D2E/DX2                !
 ! A35   A(8,10,24)            120.7677         estimate D2E/DX2                !
 ! A36   A(11,10,24)           117.8724         estimate D2E/DX2                !
 ! A37   A(10,11,12)           120.2256         estimate D2E/DX2                !
 ! A38   A(10,11,25)           119.3538         estimate D2E/DX2                !
 ! A39   A(12,11,25)           120.4206         estimate D2E/DX2                !
 ! A40   A(11,12,13)           119.4829         estimate D2E/DX2                !
 ! A41   A(11,12,26)           120.933          estimate D2E/DX2                !
 ! A42   A(13,12,26)           119.5839         estimate D2E/DX2                !
 ! A43   A(9,13,12)            120.5987         estimate D2E/DX2                !
 ! A44   A(9,13,29)            119.4008         estimate D2E/DX2                !
 ! A45   A(12,13,29)           120.0005         estimate D2E/DX2                !
 ! A46   A(12,26,27)           107.6478         estimate D2E/DX2                !
 ! A47   A(12,26,28)           107.3101         estimate D2E/DX2                !
 ! A48   A(12,26,30)           124.8189         estimate D2E/DX2                !
 ! A49   A(27,26,28)            99.0469         estimate D2E/DX2                !
 ! A50   A(27,26,30)           107.1307         estimate D2E/DX2                !
 ! A51   A(28,26,30)           107.8973         estimate D2E/DX2                !
 ! A52   A(26,30,31)           109.5895         estimate D2E/DX2                !
 ! A53   A(26,30,32)           109.4649         estimate D2E/DX2                !
 ! A54   A(26,30,33)           109.6163         estimate D2E/DX2                !
 ! A55   A(31,30,32)           109.2383         estimate D2E/DX2                !
 ! A56   A(31,30,33)           109.2487         estimate D2E/DX2                !
 ! A57   A(32,30,33)           109.6689         estimate D2E/DX2                !
 ! A58   A(21,34,36)           120.7689         estimate D2E/DX2                !
 ! A59   A(22,35,36)           120.8651         estimate D2E/DX2                !
 ! A60   A(34,36,35)           119.8022         estimate D2E/DX2                !
 ! A61   A(34,36,37)           118.9883         estimate D2E/DX2                !
 ! A62   A(35,36,37)           121.2093         estimate D2E/DX2                !
 ! A63   A(36,37,38)           113.1961         estimate D2E/DX2                !
 ! A64   A(36,37,39)           108.6824         estimate D2E/DX2                !
 ! A65   A(36,37,40)           108.5985         estimate D2E/DX2                !
 ! A66   A(38,37,39)           108.8586         estimate D2E/DX2                !
 ! A67   A(38,37,40)           108.7675         estimate D2E/DX2                !
 ! A68   A(39,37,40)           108.6483         estimate D2E/DX2                !
 ! A69   A(37,38,41)           110.3397         estimate D2E/DX2                !
 ! A70   A(37,38,42)           109.5386         estimate D2E/DX2                !
 ! A71   A(37,38,43)           110.3227         estimate D2E/DX2                !
 ! A72   A(41,38,42)           108.6491         estimate D2E/DX2                !
 ! A73   A(41,38,43)           109.3322         estimate D2E/DX2                !
 ! A74   A(42,38,43)           108.6183         estimate D2E/DX2                !
 ! A75   L(4,21,34,2,-1)       181.2123         estimate D2E/DX2                !
 ! A76   L(7,22,35,1,-1)       184.1568         estimate D2E/DX2                !
 ! A77   L(4,21,34,2,-2)       190.7848         estimate D2E/DX2                !
 ! A78   L(7,22,35,1,-2)       191.228          estimate D2E/DX2                !
 ! D1    D(14,1,2,3)           179.9177         estimate D2E/DX2                !
 ! D2    D(14,1,2,17)           59.2331         estimate D2E/DX2                !
 ! D3    D(14,1,2,18)          -59.3144         estimate D2E/DX2                !
 ! D4    D(15,1,2,3)            60.288          estimate D2E/DX2                !
 ! D5    D(15,1,2,17)          -60.3967         estimate D2E/DX2                !
 ! D6    D(15,1,2,18)         -178.9442         estimate D2E/DX2                !
 ! D7    D(16,1,2,3)           -60.449          estimate D2E/DX2                !
 ! D8    D(16,1,2,17)          178.8663         estimate D2E/DX2                !
 ! D9    D(16,1,2,18)           60.3188         estimate D2E/DX2                !
 ! D10   D(1,2,3,4)           -179.8764         estimate D2E/DX2                !
 ! D11   D(1,2,3,19)            59.5645         estimate D2E/DX2                !
 ! D12   D(1,2,3,20)           -59.4525         estimate D2E/DX2                !
 ! D13   D(17,2,3,4)           -59.5251         estimate D2E/DX2                !
 ! D14   D(17,2,3,19)          179.9158         estimate D2E/DX2                !
 ! D15   D(17,2,3,20)           60.8988         estimate D2E/DX2                !
 ! D16   D(18,2,3,4)            59.7516         estimate D2E/DX2                !
 ! D17   D(18,2,3,19)          -60.8075         estimate D2E/DX2                !
 ! D18   D(18,2,3,20)         -179.8245         estimate D2E/DX2                !
 ! D19   D(2,3,4,5)            179.6165         estimate D2E/DX2                !
 ! D20   D(2,3,4,21)            -0.2209         estimate D2E/DX2                !
 ! D21   D(19,3,4,5)           -59.831          estimate D2E/DX2                !
 ! D22   D(19,3,4,21)          120.3317         estimate D2E/DX2                !
 ! D23   D(20,3,4,5)            59.2581         estimate D2E/DX2                !
 ! D24   D(20,3,4,21)         -120.5793         estimate D2E/DX2                !
 ! D25   D(3,4,5,6)             -0.1089         estimate D2E/DX2                !
 ! D26   D(3,4,5,7)           -179.5715         estimate D2E/DX2                !
 ! D27   D(21,4,5,6)           179.7275         estimate D2E/DX2                !
 ! D28   D(21,4,5,7)             0.2649         estimate D2E/DX2                !
 ! D29   D(3,4,34,36)         -174.4148         estimate D2E/DX2                !
 ! D30   D(5,4,34,36)           -1.5332         estimate D2E/DX2                !
 ! D31   D(4,5,7,8)            179.6918         estimate D2E/DX2                !
 ! D32   D(4,5,7,22)             0.2602         estimate D2E/DX2                !
 ! D33   D(6,5,7,8)              0.2415         estimate D2E/DX2                !
 ! D34   D(6,5,7,22)          -179.1902         estimate D2E/DX2                !
 ! D35   D(5,7,8,9)              4.7392         estimate D2E/DX2                !
 ! D36   D(5,7,8,10)          -175.4172         estimate D2E/DX2                !
 ! D37   D(22,7,8,9)          -175.8296         estimate D2E/DX2                !
 ! D38   D(22,7,8,10)            4.014          estimate D2E/DX2                !
 ! D39   D(5,7,35,36)            1.3769         estimate D2E/DX2                !
 ! D40   D(8,7,35,36)          174.9323         estimate D2E/DX2                !
 ! D41   D(7,8,9,13)          -179.9817         estimate D2E/DX2                !
 ! D42   D(7,8,9,23)             0.4055         estimate D2E/DX2                !
 ! D43   D(10,8,9,13)            0.1739         estimate D2E/DX2                !
 ! D44   D(10,8,9,23)         -179.4389         estimate D2E/DX2                !
 ! D45   D(7,8,10,11)          179.8884         estimate D2E/DX2                !
 ! D46   D(7,8,10,24)            0.1723         estimate D2E/DX2                !
 ! D47   D(9,8,10,11)           -0.2572         estimate D2E/DX2                !
 ! D48   D(9,8,10,24)         -179.9733         estimate D2E/DX2                !
 ! D49   D(8,9,13,12)            0.0607         estimate D2E/DX2                !
 ! D50   D(8,9,13,29)         -179.9169         estimate D2E/DX2                !
 ! D51   D(23,9,13,12)         179.704          estimate D2E/DX2                !
 ! D52   D(23,9,13,29)          -0.2736         estimate D2E/DX2                !
 ! D53   D(8,10,11,12)           0.1061         estimate D2E/DX2                !
 ! D54   D(8,10,11,25)        -179.9007         estimate D2E/DX2                !
 ! D55   D(24,10,11,12)        179.8302         estimate D2E/DX2                !
 ! D56   D(24,10,11,25)         -0.1767         estimate D2E/DX2                !
 ! D57   D(10,11,12,13)          0.1356         estimate D2E/DX2                !
 ! D58   D(10,11,12,26)        179.9729         estimate D2E/DX2                !
 ! D59   D(25,11,12,13)       -179.8575         estimate D2E/DX2                !
 ! D60   D(25,11,12,26)         -0.0202         estimate D2E/DX2                !
 ! D61   D(11,12,13,9)          -0.2179         estimate D2E/DX2                !
 ! D62   D(11,12,13,29)        179.7595         estimate D2E/DX2                !
 ! D63   D(26,12,13,9)         179.9425         estimate D2E/DX2                !
 ! D64   D(26,12,13,29)         -0.0801         estimate D2E/DX2                !
 ! D65   D(11,12,26,27)         22.7773         estimate D2E/DX2                !
 ! D66   D(11,12,26,28)        -83.0052         estimate D2E/DX2                !
 ! D67   D(11,12,26,30)        149.4882         estimate D2E/DX2                !
 ! D68   D(13,12,26,27)       -157.3855         estimate D2E/DX2                !
 ! D69   D(13,12,26,28)         96.8319         estimate D2E/DX2                !
 ! D70   D(13,12,26,30)        -30.6747         estimate D2E/DX2                !
 ! D71   D(12,26,30,31)       -176.2776         estimate D2E/DX2                !
 ! D72   D(12,26,30,32)        -56.4944         estimate D2E/DX2                !
 ! D73   D(12,26,30,33)         63.8334         estimate D2E/DX2                !
 ! D74   D(27,26,30,31)        -49.3505         estimate D2E/DX2                !
 ! D75   D(27,26,30,32)         70.4327         estimate D2E/DX2                !
 ! D76   D(27,26,30,33)       -169.2395         estimate D2E/DX2                !
 ! D77   D(28,26,30,31)         56.4596         estimate D2E/DX2                !
 ! D78   D(28,26,30,32)        176.2428         estimate D2E/DX2                !
 ! D79   D(28,26,30,33)        -63.4293         estimate D2E/DX2                !
 ! D80   D(21,34,36,35)         -0.6228         estimate D2E/DX2                !
 ! D81   D(21,34,36,37)        179.2172         estimate D2E/DX2                !
 ! D82   D(22,35,36,34)          0.2682         estimate D2E/DX2                !
 ! D83   D(22,35,36,37)       -179.5682         estimate D2E/DX2                !
 ! D84   D(34,36,37,38)       -179.7514         estimate D2E/DX2                !
 ! D85   D(34,36,37,39)         59.1762         estimate D2E/DX2                !
 ! D86   D(34,36,37,40)        -58.8535         estimate D2E/DX2                !
 ! D87   D(35,36,37,38)          0.0863         estimate D2E/DX2                !
 ! D88   D(35,36,37,39)       -120.9861         estimate D2E/DX2                !
 ! D89   D(35,36,37,40)        120.9842         estimate D2E/DX2                !
 ! D90   D(36,37,38,41)        -60.5482         estimate D2E/DX2                !
 ! D91   D(36,37,38,42)        179.8858         estimate D2E/DX2                !
 ! D92   D(36,37,38,43)         60.3683         estimate D2E/DX2                !
 ! D93   D(39,37,38,41)         60.4246         estimate D2E/DX2                !
 ! D94   D(39,37,38,42)        -59.1413         estimate D2E/DX2                !
 ! D95   D(39,37,38,43)       -178.6589         estimate D2E/DX2                !
 ! D96   D(40,37,38,41)        178.6495         estimate D2E/DX2                !
 ! D97   D(40,37,38,42)         59.0836         estimate D2E/DX2                !
 ! D98   D(40,37,38,43)        -60.434          estimate D2E/DX2                !
 --------------------------------------------------------------------------------
 Trust Radius=3.00D-01 FncErr=1.00D-07 GrdErr=1.00D-06
 Number of steps in this run=    230 maximum allowed number of steps=    258.
 GradGradGradGradGradGradGradGradGradGradGradGradGradGradGradGradGradGrad

                          Input orientation:                          
 ---------------------------------------------------------------------
 Center     Atomic      Atomic             Coordinates (Angstroms)
 Number     Number       Type             X           Y           Z
 ---------------------------------------------------------------------
      1          6           0       -2.214870    2.558080   -0.310910
      2          6           0       -0.935320    1.763130   -0.067940
      3          6           0        0.306510    2.638850   -0.264410
      4          7           0        1.525600    1.880570   -0.035710
      5          6           0        2.756380    2.455910   -0.162250
      6          8           0        2.829670    3.632840   -0.476480
      7          7           0        3.884660    1.705630    0.053120
      8          6           0        5.257120    2.142240   -0.041210
      9          6           0        5.656670    3.480170   -0.288410
     10          6           0        6.273350    1.178470    0.125970
     11          6           0        7.624560    1.525170    0.046050
     12          6           0        7.997460    2.847960   -0.201500
     13          6           0        7.010680    3.820260   -0.365410
     14          1           0       -3.096210    1.899090   -0.163190
     15          1           0       -2.234350    2.950500   -1.350040
     16          1           0       -2.282470    3.407800    0.401480
     17          1           0       -0.902040    0.908500   -0.778390
     18          1           0       -0.950150    1.366610    0.970560
     19          1           0        0.267960    3.493040    0.447230
     20          1           0        0.311660    3.033710   -1.304460
     21          1           0        1.445730    0.779620    0.253090
     22          1           0        3.717870    0.605820    0.330460
     23          1           0        4.968200    4.293070   -0.421940
     24          1           0        6.027650    0.143030    0.316310
     25          1           0        8.377590    0.759010    0.177920
     26         16           0        9.727800    3.314610   -0.307270
     27          8           0       10.530000    2.052350   -0.660940
     28          8           0       10.232380    3.527250    1.127890
     29          1           0        7.290410    4.849100   -0.553800
     30          6           0       10.376800    4.665990   -1.333180
     31          9           0       11.755440    4.695940   -1.242030
     32          9           0       10.011980    4.460540   -2.649800
     33          9           0        9.864830    5.870800   -0.891340
     34          8           0        1.349000   -1.099700    1.122660
     35          8           0        3.568820   -1.270540    1.210650
     36          6           0        2.474700   -1.770180    1.444180
     37          6           0        2.357670   -3.124850    2.090360
     38          6           0        3.711470   -3.761730    2.402930
     39          1           0        1.793590   -3.796670    1.408800
     40          1           0        1.785990   -3.017720    3.036910
     41          1           0        4.296320   -3.903540    1.469100
     42          1           0        3.554690   -4.753220    2.877740
     43          1           0        4.287260   -3.119940    3.103650
 ---------------------------------------------------------------------
                    Distance matrix (angstroms):
                    1          2          3          4          5
     1  C    0.000000
     2  C    1.525853   0.000000
     3  C    2.523102   1.532197   0.000000
     4  N    3.811282   2.463931   1.453779   0.000000
     5  C    4.974522   3.757324   2.458814   1.364495   0.000000
     6  O    5.160417   4.223490   2.720170   2.228301   1.220359
     7  N    6.169559   4.821843   3.711453   2.367205   1.371977
     8  C    7.488411   6.204092   4.980460   3.740687   2.523240
     9  C    7.925396   6.815509   5.415959   4.437152   3.078426
    10  C    8.610695   7.234940   6.155346   4.802105   3.752866
    11  C    9.899935   8.563946   7.408814   6.109853   4.960730
    12  C   10.217029   8.999403   7.694049   6.545861   5.255869
    13  C    9.311651   8.213354   6.808218   5.827281   4.472336
    14  H    1.110337   2.167257   3.483675   4.623605   5.879019
    15  H    1.110929   2.177408   2.780591   4.124250   5.153916
    16  H    1.110898   2.177179   2.781638   4.126132   5.158866
    17  H    2.159438   1.111863   2.172298   2.718443   4.019719
    18  H    2.159000   1.111724   2.173233   2.721410   4.025941
    19  H    2.759234   2.169302   1.112456   2.101178   2.763935
    20  H    2.756215   2.167560   1.112495   2.100740   2.759557
    21  H    4.108650   2.596103   2.241063   1.140998   2.168008
    22  H    6.278541   4.811472   4.015527   2.562248   2.142442
    23  H    7.390468   6.432531   4.949001   4.221472   2.886996
    24  H    8.611911   7.159282   6.268795   4.838535   4.034804
    25  H   10.755269   9.370112   8.298903   6.946460   5.881597
    26  S   11.966608  10.778056   9.445591   8.331044   7.025603
    27  O   12.759702  11.484288  10.247974   9.027715   7.800046
    28  O   12.567556  11.369241  10.062338   8.937200   7.661776
    29  H    9.780497   8.798972   7.331017   6.504892   5.141799
    30  C   12.807751  11.746978  10.327745   9.369404   8.020370
    31  F   14.163580  13.078045  11.673275  10.678537   9.336313
    32  F   12.593078  11.566564  10.158976   9.247073   7.927810
    33  F   12.539145  11.584221  10.109403   9.284223   7.919792
    34  O    5.304305   3.851161   4.121590   3.202346   4.034114
    35  O    7.101024   5.578998   5.301113   3.956976   4.053559
    36  C    6.618628   5.137998   5.201911   4.052017   4.529878
    37  C    7.679187   6.276495   6.555337   5.501522   6.031426
    38  C    9.078900   7.630330   7.725016   6.523844   6.793482
    39  H    7.707659   6.367031   6.813733   5.864255   6.518429
    40  H    7.635727   6.316815   6.714489   5.788095   6.413806
    41  H    9.344333   7.864076   7.856622   6.587661   6.743539
    42  H    9.844309   8.443935   8.664091   7.524132   7.864502
    43  H    9.283147   7.821681   7.768775   6.518240   6.640768
                    6          7          8          9         10
     6  O    0.000000
     7  N    2.260004   0.000000
     8  C    2.881642   1.443320   0.000000
     9  C    2.837359   2.530939   1.418028   0.000000
    10  C    4.271511   2.447252   1.410505   2.418642   0.000000
    11  C    5.263676   3.744258   2.448094   2.794008   1.397268
    12  C    5.234282   4.276082   2.834289   2.426219   2.422187
    13  C    4.186682   3.797213   2.448638   1.398189   2.786425
    14  H    6.182240   6.986899   8.357758   8.895415   9.401679
    15  H    5.183917   6.400066   7.647774   7.979712   8.814741
    16  H    5.191862   6.407201   7.657874   7.969387   8.845783
    17  H    4.630209   4.923345   6.324619   7.061887   7.237194
    18  H    4.638616   4.932750   6.336835   7.049980   7.275141
    19  H    2.726746   4.053477   5.191816   5.438706   6.444001
    20  H    2.717514   4.046375   5.181515   5.459012   6.405450
    21  H    3.253986   2.616460   4.058330   5.031720   4.845736
    22  H    3.256210   1.146437   2.206358   3.521908   2.626827
    23  H    2.238792   2.845099   2.203293   1.073605   3.421163
    24  H    4.799413   2.665219   2.172183   3.411717   1.081080
    25  H    6.282241   4.593265   3.420333   3.876284   2.146269
    26  S    6.907539   6.071325   4.629494   4.074539   4.084607
    27  O    7.863018   6.692581   5.309935   5.091836   4.416103
    28  O    7.575306   6.690813   5.295117   4.790119   4.711107
    29  H    4.624226   4.674279   3.424048   2.147908   3.869111
    30  C    7.665540   7.268662   5.852318   4.977684   5.579446
    31  F    9.021398   8.518717   7.084597   6.291461   6.655624
    32  F    7.549436   7.241502   5.898131   5.050348   5.696862
    33  F    7.394190   7.348679   5.987977   4.877217   5.995966
    34  O    5.210237   3.929805   5.209431   6.443784   5.516582
    35  O    5.237928   3.208928   4.008064   5.401439   3.806398
    36  C    5.745221   4.000536   5.025463   6.379105   4.986177
    37  C    7.244158   5.460365   6.379078   7.756819   6.140842
    38  C    7.984249   5.953455   6.574170   7.966946   6.012766
    39  H    7.734686   6.040343   7.026323   8.411677   6.816592
    40  H    7.593624   5.968036   6.938930   8.262112   6.798381
    41  H    7.920440   5.799763   6.305206   7.710938   5.616001
    42  H    9.061040   7.057202   7.678926   9.068161   7.081546
    43  H    7.780870   5.723106   6.206554   7.546046   5.593519
                   11         12         13         14         15
    11  C    0.000000
    12  C    1.396463   0.000000
    13  C    2.411138   1.394980   0.000000
    14  H   10.729329  11.134242  10.289850   0.000000
    15  H   10.058764  10.296582   9.337910   1.804682   0.000000
    16  H   10.090583  10.312806   9.333857   1.804780   1.810873
    17  H    8.588533   9.126632   8.441566   2.484778   2.504316
    18  H    8.625863   9.144826   8.436826   2.484854   3.089185
    19  H    7.625813   7.783454   6.799392   3.772390   3.128272
    20  H    7.588022   7.766759   6.810091   3.768745   2.547777
    21  H    6.227090   6.885481   6.371554   4.696352   4.563522
    22  H    4.023471   4.860562   4.653972   6.953267   6.614418
    23  H    3.864781   3.363533   2.097253   8.416222   7.385160
    24  H    2.129195   3.385990   3.866925   9.303681   8.883651
    25  H    1.082333   2.156889   3.396307  11.535347  10.943060
    26  S    2.783981   1.795279   2.764381  12.902701  12.013034
    27  O    3.036336   2.694038   3.949488  13.636159  12.814451
    28  O    3.461131   2.687672   3.563025  13.489592  12.723684
    29  H    3.394111   2.151417   1.082706  10.804490   9.744728
    30  C    4.397937   3.201123   3.603138  13.803862  12.727305
    31  F    5.364429   4.315107   4.903879  15.151164  14.098668
    32  F    4.645835   3.557088   3.825728  13.585614  12.407344
    33  F    4.978153   3.619463   3.553518  13.575465  12.455068
    34  O    6.887066   7.844708   7.646893   5.514168   5.946323
    35  O    5.061750   6.210400   6.344022   7.507104   7.619127
    36  C    6.271775   7.384874   7.423123   6.861648   7.229636
    37  C    7.317241   8.528441   8.712971   7.750050   8.356607
    38  C    6.987021   8.297034   8.719809   9.218154   9.720679
    39  H    8.011197   9.232127   9.401248   7.669614   8.328253
    40  H    7.979473   9.136513   9.253709   7.632269   8.427818
    41  H    6.524810   7.878585   8.389891   9.538574   9.878009
    42  H    8.000031   9.327264   9.796247   9.886099  10.523042
    43  H    6.485641   7.765657   8.223002   9.506763   9.960773
                   16         17         18         19         20
    16  H    0.000000
    17  H    3.089366   0.000000
    18  H    2.503075   1.808592   0.000000
    19  H    2.552264   3.090452   2.505867   0.000000
    20  H    3.127249   2.503265   3.089839   1.811439   0.000000
    21  H    4.563861   2.567603   2.568961   2.964369   2.965299
    22  H    6.622705   4.760749   4.772729   4.500173   4.491089
    23  H    7.350778   6.785432   6.747599   4.846417   4.903896
    24  H    8.928834   7.057260   7.114414   6.664363   6.607228
    25  H   10.986489   9.329974   9.381055   8.562333   8.510637
    26  S   12.031525  10.908933  10.929143   9.491558   9.472961
    27  O   12.927698  11.489723  11.615760  10.421761  10.285507
    28  O   12.536483  11.595993  11.390439   9.987699  10.226465
    29  H    9.727792   9.093679   9.075144   7.221895   7.249971
    30  C   12.839362  11.901208  12.020521  10.331230  10.196676
    31  F   14.192369  13.220116  13.319610  11.673164  11.564039
    32  F   12.711100  11.629058  11.951891  10.270033   9.896565
    33  F   12.461727  11.855913  11.862470   9.977245   9.974107
    34  O    5.833115   3.565675   3.375190   4.766352   4.904290
    35  O    7.535198   5.356593   5.237680   5.845527   5.954951
    36  C    7.108401   4.849486   4.668336   5.793539   5.942316
    37  C    8.188940   5.926495   5.689362   7.131846   7.323853
    38  C    9.556949   7.294952   7.076882   8.265241   8.454671
    39  H    8.338666   5.847123   5.863414   7.509463   7.497465
    40  H    8.048923   6.098953   5.565844   7.169439   7.592164
    41  H    9.893229   7.431681   7.453085   8.484179   8.467325
    42  H   10.334725   8.079901   7.834746   9.203846   9.415111
    43  H    9.647511   7.630688   7.218703   8.181861   8.550102
                   21         22         23         24         25
    21  H    0.000000
    22  H    2.280091   0.000000
    23  H    5.020736   3.965507   0.000000
    24  H    4.626363   2.355729   4.346295   0.000000
    25  H    6.932298   4.664732   4.947055   2.433270   0.000000
    26  S    8.679451   6.622953   4.860486   4.913134   2.930796
    27  O    9.218419   7.034233   6.000964   4.987151   2.647505
    28  O    9.247700   7.183974   5.540762   5.458146   3.464945
    29  H    7.167428   5.616973   2.391488   4.949621   4.294905
    30  C    9.868340   7.974586   5.497489   6.487919   4.641633
    31  F   11.129379   9.154471   6.848465   7.480975   5.378248
    32  F    9.765069   7.959688   5.516441   6.581306   4.936452
    33  F    9.905104   8.185226   5.165903   6.999266   5.430064
    34  O    2.073006   3.024554   6.675805   4.907580   7.331331
    35  O    3.102836   2.077902   5.964677   2.973864   5.320702
    36  C    2.996490   2.903656   6.816373   4.189978   6.545558
    37  C    4.410451   4.343419   8.255426   5.224466   7.414933
    38  C    5.511737   4.834322   8.627808   4.996581   6.867346
    39  H    4.732769   4.924184   8.881084   5.885748   8.100515
    40  H    4.720723   4.918036   8.691246   5.948419   8.117063
    41  H    5.615740   4.686729   8.438713   4.549852   6.329556
    42  H    6.476791   5.935872   9.732485   6.053901   7.806028
    43  H    5.604155   4.679324   8.236879   4.630896   6.351138
                   26         27         28         29         30
    26  S    0.000000
    27  O    1.536850   0.000000
    28  O    1.536067   2.337482   0.000000
    29  H    2.890728   4.281149   3.637383   0.000000
    30  C    1.816568   2.703052   2.715594   3.188537   0.000000
    31  F    2.625485   2.971184   3.049929   4.520355   1.381975
    32  F    2.623235   3.165958   3.897505   3.457042   1.381590
    33  F    2.625647   3.882795   3.115222   2.790241   1.381631
    34  O    9.577845   9.869519  10.016144   8.573161  10.989791
    35  O    7.826923   7.937410   8.211496   7.376551   9.384138
    36  C    9.029403   9.161393   9.399170   8.426022  10.563200
    37  C   10.076413  10.057834  10.353156   9.742042  11.692915
    38  C    9.675536   9.470120   9.862922   9.782508  11.375922
    39  H   10.791983  10.715396  11.177294  10.431499  12.361495
    40  H   10.693656  10.762779  10.854607  10.250790  12.326358
    41  H    9.206419   8.880792   9.516821   9.469182  10.874827
    42  H   10.646194  10.367883  10.780524  10.859817  12.369097
    43  H    9.090505   8.938486   9.134178   9.268303  10.834605
                   31         32         33         34         35
    31  F    0.000000
    32  F    2.253194   0.000000
    33  F    2.253372   2.258909   0.000000
    34  O   12.143937  10.963346  11.187646   0.000000
    35  O   10.422824   9.447892   9.749710   2.228122   0.000000
    36  C   11.625772  10.601563  10.883623   1.349118   1.225265
    37  C   12.672319  11.772668  12.090066   2.460709   2.383116
    38  C   12.227975  11.525287  11.895448   3.782428   2.765485
    39  H   13.356264  12.336762  12.802169   2.748306   3.093871
    40  H   13.311642  12.487192  12.637428   2.744834   3.092951
    41  H   11.702126  10.935810  11.494247   4.082675   2.743855
    42  H   13.172374  12.535696  12.918732   4.614497   3.861146
    43  H   11.651035  11.105777  11.309405   4.079101   2.742241
                   36         37         38         39         40
    36  C    0.000000
    37  C    1.505449   0.000000
    38  C    2.532799   1.528427   0.000000
    39  H    2.138182   1.110879   2.160504   0.000000
    40  H    2.137163   1.110969   2.159388   1.804872   0.000000
    41  H    2.805378   2.179607   1.110945   2.505736   3.089411
    42  H    3.481379   2.168966   1.110440   2.484803   2.483062
    43  H    2.803759   2.179472   1.111052   3.090125   2.504247
                   41         42         43
    41  H    0.000000
    42  H    1.804505   0.000000
    43  H    1.812695   1.804244   0.000000
 Stoichiometry    C14H18F3N2O5S(1-)
 Framework group  C1[X(C14H18F3N2O5S)]
 Deg. of freedom   123
 Full point group                 C1      NOp   1
 Largest Abelian subgroup         C1      NOp   1
 Largest concise Abelian subgroup C1      NOp   1
                         Standard orientation:                         
 ---------------------------------------------------------------------
 Center     Atomic      Atomic             Coordinates (Angstroms)
 Number     Number       Type             X           Y           Z
 ---------------------------------------------------------------------
      1          6           0       -6.778899   -3.760462    0.020071
      2          6           0       -5.956615   -2.477998    0.105885
      3          6           0       -4.459035   -2.769856   -0.034470
      4          7           0       -3.675530   -1.548209    0.050208
      5          6           0       -2.314237   -1.567540   -0.041214
      6          8           0       -1.746889   -2.636930   -0.195474
      7          7           0       -1.608331   -0.394803    0.052085
      8          6           0       -0.176324   -0.227612   -0.015546
      9          6           0        0.740048   -1.274302   -0.290336
     10          6           0        0.352548    1.061708    0.202342
     11          6           0        1.728404    1.300786    0.155257
     12          6           0        2.614730    0.255698   -0.113678
     13          6           0        2.115468   -1.027488   -0.337600
     14          1           0       -7.857432   -3.518904    0.126208
     15          1           0       -6.489399   -4.460032    0.833062
     16          1           0       -6.620066   -4.255810   -0.961507
     17          1           0       -6.148880   -1.992032    1.087267
     18          1           0       -6.278839   -1.789381   -0.705231
     19          1           0       -4.271917   -3.257217   -1.016827
     20          1           0       -4.146031   -3.461617    0.778635
     21          1           0       -4.215778   -0.554321    0.199185
     22          1           0       -2.225560    0.558206    0.210579
     23          1           0        0.446426   -2.289453   -0.479762
     24          1           0       -0.298665    1.897675    0.416385
     25          1           0        2.099065    2.302717    0.329010
     26         16           0        4.385880    0.541589   -0.179388
     27          8           0        4.683097    1.812530    0.631955
     28          8           0        4.711701    1.070216   -1.584342
     29          1           0        2.794830   -1.843154   -0.550691
     30          6           0        5.651501   -0.684026    0.263321
     31          9           0        6.904610   -0.107571    0.178052
     32          9           0        5.437902   -1.119710    1.556900
     33          9           0        5.583166   -1.755977   -0.605675
     34          8           0       -5.158472    1.289549    0.105250
     35          8           0       -3.216347    2.381647    0.105298
     36          6           0       -4.440112    2.430969    0.070071
     37          6           0       -5.165613    3.747263   -0.015924
     38          6           0       -4.225278    4.951598   -0.053816
     39          1           0       -5.835685    3.842464    0.864981
     40          1           0       -5.787005    3.749849   -0.936856
     41          1           0       -3.607165    4.988064    0.868575
     42          1           0       -4.821316    5.886244   -0.119022
     43          1           0       -3.558990    4.893171   -0.940994
 ---------------------------------------------------------------------
 Rotational constants (GHZ):      0.2927259      0.0685415      0.0569883
 General basis read from cards:  (6D, 7F)
 There are   515 symmetry adapted cartesian basis functions of A   symmetry.
 There are   515 symmetry adapted basis functions of A   symmetry.
   515 basis functions,   896 primitive gaussians,   515 cartesian basis functions
   100 alpha electrons      100 beta electrons
       nuclear repulsion energy      2341.9638683592 Hartrees.
 NAtoms=   43 NActive=   43 NUniq=   43 SFac= 1.00D+00 NAtFMM=   60 NAOKFM=F Big=F
 Integral buffers will be    131072 words long.
 Raffenetti 2 integral format.
 Two-electron integral symmetry is turned on.
 ------------------------------------------------------------------------------
 Polarizable Continuum Model (PCM)
 =================================
 Model                : PCM (using non-symmetric T matrix).
 Atomic radii         : SMD-Coulomb.
 Polarization charges : Total charges.
 Charge compensation  : None.
 Solution method      : On-the-fly selection.
 Cavity type          : VdW (van der Waals Surface) (Alpha=1.000).
 Cavity algorithm     : GePol (No added spheres)
                        Default sphere list used, NSphG=   43.
                        Lebedev-Laikov grids with approx.  5.0 points / Ang**2.
                        Smoothing algorithm: York/Karplus (Gamma=1.0000).
                        Polarization charges: spherical gaussians, with
                                              point-specific exponents (IZeta= 3).
                        Self-potential: point-specific (ISelfS= 7).
                        Self-field    : sphere-specific E.n sum rule (ISelfD= 2).
 1st derivatives      : Analytical E(r).r(x)/FMM algorithm (CHGder, D1EAlg=3).
                        Cavity 1st derivative terms included.
 Solvent              : Water, Eps=  78.355300 Eps(inf)=   1.777849
 ------------------------------------------------------------------------------
 ------------------------------------------------------------------------------
 Atomic radii for non-electrostatic terms: SMD-CDS.
 ------------------------------------------------------------------------------
 Nuclear repulsion after PCM non-electrostatic terms =     2341.9794417701 Hartrees.
 One-electron integrals computed using PRISM.
 NBasis=   515 RedAO= T EigKep=  1.87D-06  NBF=   515
 NBsUse=   513 1.00D-06 EigRej=  9.57D-07 NBFU=   513
 ExpMin= 4.05D-02 ExpMax= 2.19D+04 ExpMxC= 3.30D+03 IAcc=3 IRadAn=         5 AccDes= 0.00D+00
 Harris functional with IExCor= 1009 and IRadAn=       5 diagonalized for initial guess.
 HarFok:  IExCor= 1009 AccDes= 0.00D+00 IRadAn=         5 IDoV= 1 UseB2=F ITyADJ=14
 ICtDFT=  3500011 ScaDFX=  1.000000  1.000000  1.000000  1.000000
 FoFCou: FMM=F IPFlag=           0 FMFlag=      100000 FMFlg1=           0
         NFxFlg=           0 DoJE=T BraDBF=F KetDBF=T FulRan=T
         wScrn=  0.000000 ICntrl=     500 IOpCl=  0 I1Cent=   200000004 NGrid=           0
         NMat0=    1 NMatS0=      1 NMatT0=    0 NMatD0=    1 NMtDS0=    0 NMtDT0=    0
 Petite list used in FoFCou.
 Requested convergence on RMS density matrix=1.00D-08 within 128 cycles.
 Requested convergence on MAX density matrix=1.00D-06.
 Requested convergence on             energy=1.00D-06.
 No special actions if energy rises.
 Inv3:  Mode=1 IEnd=    32908032.
 Iteration    1 A*A^-1 deviation from unit magnitude is 6.55D-15 for   3306.
 Iteration    1 A*A^-1 deviation from orthogonality  is 3.75D-15 for   2819    411.
 Iteration    1 A^-1*A deviation from unit magnitude is 6.77D-15 for   3306.
 Iteration    1 A^-1*A deviation from orthogonality  is 1.17D-12 for   2726   2687.
 Error on total polarization charges =  0.07393
 SCF Done:  E(RM062X) =  -1727.21772886     A.U. after   16 cycles
            NFock= 16  Conv=0.93D-08     -V/T= 2.0080
 SMD-CDS (non-electrostatic) energy       (kcal/mol) =       9.77
 (included in total energy above)

 **********************************************************************

            Population analysis using the SCF density.

 **********************************************************************

 Orbital symmetries:
       Occupied  (A) (A) (A) (A) (A) (A) (A) (A) (A) (A) (A) (A)
                 (A) (A) (A) (A) (A) (A) (A) (A) (A) (A) (A) (A)
                 (A) (A) (A) (A) (A) (A) (A) (A) (A) (A) (A) (A)
                 (A) (A) (A) (A) (A) (A) (A) (A) (A) (A) (A) (A)
                 (A) (A) (A) (A) (A) (A) (A) (A) (A) (A) (A) (A)
                 (A) (A) (A) (A) (A) (A) (A) (A) (A) (A) (A) (A)
                 (A) (A) (A) (A) (A) (A) (A) (A) (A) (A) (A) (A)
                 (A) (A) (A) (A) (A) (A) (A) (A) (A) (A) (A) (A)
                 (A) (A) (A) (A)
       Virtual   (A) (A) (A) (A) (A) (A) (A) (A) (A) (A) (A) (A)
                 (A) (A) (A) (A) (A) (A) (A) (A) (A) (A) (A) (A)
                 (A) (A) (A) (A) (A) (A) (A) (A) (A) (A) (A) (A)
                 (A) (A) (A) (A) (A) (A) (A) (A) (A) (A) (A) (A)
                 (A) (A) (A) (A) (A) (A) (A) (A) (A) (A) (A) (A)
                 (A) (A) (A) (A) (A) (A) (A) (A) (A) (A) (A) (A)
                 (A) (A) (A) (A) (A) (A) (A) (A) (A) (A) (A) (A)
                 (A) (A) (A) (A) (A) (A) (A) (A) (A) (A) (A) (A)
                 (A) (A) (A) (A) (A) (A) (A) (A) (A) (A) (A) (A)
                 (A) (A) (A) (A) (A) (A) (A) (A) (A) (A) (A) (A)
                 (A) (A) (A) (A) (A) (A) (A) (A) (A) (A) (A) (A)
                 (A) (A) (A) (A) (A) (A) (A) (A) (A) (A) (A) (A)
                 (A) (A) (A) (A) (A) (A) (A) (A) (A) (A) (A) (A)
                 (A) (A) (A) (A) (A) (A) (A) (A) (A) (A) (A) (A)
                 (A) (A) (A) (A) (A) (A) (A) (A) (A) (A) (A) (A)
                 (A) (A) (A) (A) (A) (A) (A) (A) (A) (A) (A) (A)
                 (A) (A) (A) (A) (A) (A) (A) (A) (A) (A) (A) (A)
                 (A) (A) (A) (A) (A) (A) (A) (A) (A) (A) (A) (A)
                 (A) (A) (A) (A) (A) (A) (A) (A) (A) (A) (A) (A)
                 (A) (A) (A) (A) (A) (A) (A) (A) (A) (A) (A) (A)
                 (A) (A) (A) (A) (A) (A) (A) (A) (A) (A) (A) (A)
                 (A) (A) (A) (A) (A) (A) (A) (A) (A) (A) (A) (A)
                 (A) (A) (A) (A) (A) (A) (A) (A) (A) (A) (A) (A)
                 (A) (A) (A) (A) (A) (A) (A) (A) (A) (A) (A) (A)
                 (A) (A) (A) (A) (A) (A) (A) (A) (A) (A) (A) (A)
                 (A) (A) (A) (A) (A) (A) (A) (A) (A) (A) (A) (A)
                 (A) (A) (A) (A) (A) (A) (A) (A) (A) (A) (A) (A)
                 (A) (A) (A) (A) (A) (A) (A) (A) (A) (A) (A) (A)
                 (A) (A) (A) (A) (A) (A) (A) (A) (A) (A) (A) (A)
                 (A) (A) (A) (A) (A) (A) (A) (A) (A) (A) (A) (A)
                 (A) (A) (A) (A) (A) (A) (A) (A) (A) (A) (A) (A)
                 (A) (A) (A) (A) (A) (A) (A) (A) (A) (A) (A) (A)
                 (A) (A) (A) (A) (A) (A) (A) (A) (A) (A) (A) (A)
                 (A) (A) (A) (A) (A) (A) (A) (A) (A) (A) (A) (A)
                 (A) (A) (A) (A) (A)
 The electronic state is 1-A.
 Alpha  occ. eigenvalues --  -90.19086 -25.35815 -25.35439 -25.35415 -19.66525
 Alpha  occ. eigenvalues --  -19.66519 -19.61514 -19.61415 -19.59311 -14.81132
 Alpha  occ. eigenvalues --  -14.78190 -10.89396 -10.68658 -10.65232 -10.63886
 Alpha  occ. eigenvalues --  -10.62809 -10.59639 -10.59288 -10.57935 -10.57709
 Alpha  occ. eigenvalues --  -10.57359 -10.54324 -10.54284 -10.53293 -10.53237
 Alpha  occ. eigenvalues --   -8.50652  -6.42790  -6.42701  -6.42650  -1.49173
 Alpha  occ. eigenvalues --   -1.41409  -1.41355  -1.23143  -1.18695  -1.16709
 Alpha  occ. eigenvalues --   -1.10275  -1.04362  -1.04014  -1.01299  -0.98645
 Alpha  occ. eigenvalues --   -0.92497  -0.88491  -0.87210  -0.86558  -0.86003
 Alpha  occ. eigenvalues --   -0.80603  -0.77107  -0.73833  -0.72788  -0.72696
 Alpha  occ. eigenvalues --   -0.72533  -0.71911  -0.68169  -0.66705  -0.65617
 Alpha  occ. eigenvalues --   -0.61854  -0.61629  -0.61111  -0.60836  -0.59668
 Alpha  occ. eigenvalues --   -0.58622  -0.57926  -0.57564  -0.56572  -0.55886
 Alpha  occ. eigenvalues --   -0.55366  -0.55207  -0.53929  -0.53588  -0.53213
 Alpha  occ. eigenvalues --   -0.52928  -0.52679  -0.51958  -0.51193  -0.50260
 Alpha  occ. eigenvalues --   -0.49557  -0.48098  -0.47674  -0.45834  -0.45481
 Alpha  occ. eigenvalues --   -0.45250  -0.43709  -0.43342  -0.42913  -0.41414
 Alpha  occ. eigenvalues --   -0.41356  -0.40938  -0.40401  -0.39779  -0.39290
 Alpha  occ. eigenvalues --   -0.39186  -0.38640  -0.37140  -0.35282  -0.33286
 Alpha  occ. eigenvalues --   -0.33154  -0.32950  -0.31957  -0.31648  -0.28698
 Alpha virt. eigenvalues --   -0.05561  -0.03219  -0.00263   0.01295   0.01793
 Alpha virt. eigenvalues --    0.02344   0.02857   0.03543   0.03765   0.04014
 Alpha virt. eigenvalues --    0.04327   0.04795   0.05011   0.05520   0.06057
 Alpha virt. eigenvalues --    0.06298   0.06540   0.07006   0.07098   0.07358
 Alpha virt. eigenvalues --    0.07704   0.07833   0.07947   0.08167   0.08764
 Alpha virt. eigenvalues --    0.08937   0.09278   0.09558   0.09842   0.10148
 Alpha virt. eigenvalues --    0.10463   0.10491   0.11314   0.11750   0.11933
 Alpha virt. eigenvalues --    0.12277   0.12319   0.12845   0.13006   0.13372
 Alpha virt. eigenvalues --    0.13637   0.14156   0.14376   0.14868   0.15241
 Alpha virt. eigenvalues --    0.15729   0.15910   0.16549   0.16854   0.17000
 Alpha virt. eigenvalues --    0.17318   0.17549   0.17873   0.18230   0.18790
 Alpha virt. eigenvalues --    0.19123   0.19631   0.20047   0.20411   0.21160
 Alpha virt. eigenvalues --    0.21246   0.21503   0.22075   0.22339   0.22485
 Alpha virt. eigenvalues --    0.22836   0.23185   0.24039   0.24178   0.24542
 Alpha virt. eigenvalues --    0.24690   0.24857   0.24972   0.25525   0.25953
 Alpha virt. eigenvalues --    0.26224   0.26431   0.26941   0.27022   0.27224
 Alpha virt. eigenvalues --    0.27525   0.27876   0.27953   0.28615   0.28842
 Alpha virt. eigenvalues --    0.29252   0.29335   0.29701   0.30249   0.30466
 Alpha virt. eigenvalues --    0.30820   0.31030   0.31607   0.31767   0.31931
 Alpha virt. eigenvalues --    0.32127   0.32607   0.32895   0.32997   0.33270
 Alpha virt. eigenvalues --    0.33556   0.33810   0.34179   0.34362   0.34553
 Alpha virt. eigenvalues --    0.35234   0.35568   0.35952   0.36171   0.36446
 Alpha virt. eigenvalues --    0.36711   0.37152   0.37361   0.38306   0.38472
 Alpha virt. eigenvalues --    0.38939   0.39400   0.39528   0.40027   0.40281
 Alpha virt. eigenvalues --    0.40631   0.40951   0.41719   0.42805   0.43139
 Alpha virt. eigenvalues --    0.43547   0.44213   0.44338   0.45022   0.45926
 Alpha virt. eigenvalues --    0.46213   0.47207   0.47933   0.48515   0.49241
 Alpha virt. eigenvalues --    0.51132   0.51339   0.52811   0.53004   0.54240
 Alpha virt. eigenvalues --    0.55139   0.56520   0.58155   0.58512   0.60578
 Alpha virt. eigenvalues --    0.60918   0.63168   0.65479   0.65839   0.69898
 Alpha virt. eigenvalues --    0.70138   0.70794   0.71422   0.72013   0.72169
 Alpha virt. eigenvalues --    0.73758   0.73863   0.74560   0.75576   0.75974
 Alpha virt. eigenvalues --    0.76868   0.77089   0.77791   0.78107   0.78851
 Alpha virt. eigenvalues --    0.79687   0.80650   0.81125   0.81792   0.82120
 Alpha virt. eigenvalues --    0.82958   0.84012   0.85017   0.85924   0.86247
 Alpha virt. eigenvalues --    0.86869   0.88076   0.88741   0.90318   0.90777
 Alpha virt. eigenvalues --    0.91732   0.92381   0.94069   0.95187   0.95576
 Alpha virt. eigenvalues --    0.96783   0.96925   0.98685   0.99002   0.99981
 Alpha virt. eigenvalues --    1.00277   1.01431   1.02879   1.03542   1.04636
 Alpha virt. eigenvalues --    1.05834   1.06069   1.06556   1.07436   1.08864
 Alpha virt. eigenvalues --    1.08987   1.09710   1.10944   1.12027   1.12247
 Alpha virt. eigenvalues --    1.13263   1.13706   1.14891   1.15783   1.16926
 Alpha virt. eigenvalues --    1.17733   1.18178   1.19017   1.19589   1.21383
 Alpha virt. eigenvalues --    1.21504   1.22733   1.23539   1.25453   1.26410
 Alpha virt. eigenvalues --    1.26744   1.28108   1.29840   1.30132   1.31292
 Alpha virt. eigenvalues --    1.31710   1.33512   1.33872   1.34749   1.35093
 Alpha virt. eigenvalues --    1.36866   1.36903   1.37191   1.37888   1.38766
 Alpha virt. eigenvalues --    1.39348   1.40218   1.42019   1.42414   1.42915
 Alpha virt. eigenvalues --    1.43135   1.45250   1.45486   1.45918   1.46244
 Alpha virt. eigenvalues --    1.46736   1.47647   1.48754   1.49955   1.49993
 Alpha virt. eigenvalues --    1.50578   1.52434   1.53703   1.54119   1.55469
 Alpha virt. eigenvalues --    1.56605   1.57398   1.58174   1.59993   1.61629
 Alpha virt. eigenvalues --    1.62626   1.64461   1.64558   1.66056   1.66557
 Alpha virt. eigenvalues --    1.67186   1.69598   1.70342   1.70535   1.71127
 Alpha virt. eigenvalues --    1.71937   1.72935   1.74186   1.74500   1.75750
 Alpha virt. eigenvalues --    1.77563   1.80357   1.83061   1.83197   1.83530
 Alpha virt. eigenvalues --    1.83628   1.84362   1.84573   1.85445   1.86023
 Alpha virt. eigenvalues --    1.86617   1.87964   1.88144   1.88329   1.89540
 Alpha virt. eigenvalues --    1.90275   1.90928   1.91309   1.91456   1.92626
 Alpha virt. eigenvalues --    1.92965   1.93245   1.94637   1.94685   1.95297
 Alpha virt. eigenvalues --    1.96364   1.96622   1.96960   1.97111   1.98312
 Alpha virt. eigenvalues --    1.98941   1.99479   2.00319   2.00600   2.03003
 Alpha virt. eigenvalues --    2.03385   2.03542   2.04903   2.05373   2.06137
 Alpha virt. eigenvalues --    2.06454   2.06752   2.07639   2.09271   2.10412
 Alpha virt. eigenvalues --    2.11619   2.12215   2.12457   2.14232   2.15133
 Alpha virt. eigenvalues --    2.15421   2.15669   2.17013   2.18479   2.20172
 Alpha virt. eigenvalues --    2.21155   2.21859   2.23547   2.24253   2.26363
 Alpha virt. eigenvalues --    2.26830   2.27554   2.28877   2.29506   2.29922
 Alpha virt. eigenvalues --    2.30791   2.31220   2.31447   2.32142   2.35729
 Alpha virt. eigenvalues --    2.37070   2.38266   2.38694   2.39195   2.41195
 Alpha virt. eigenvalues --    2.42639   2.48618   2.55077   2.55121   2.56354
 Alpha virt. eigenvalues --    2.57465   2.60586   2.61905   2.63715   2.65374
 Alpha virt. eigenvalues --    2.66966   2.67725   2.70533   2.71581   2.72935
 Alpha virt. eigenvalues --    2.73374   2.73831   2.76067   2.78784   2.79271
 Alpha virt. eigenvalues --    2.80040   2.81630   2.83903   2.86531   2.87507
 Alpha virt. eigenvalues --    2.90695   2.98593   3.02600   3.05092   3.11882
 Alpha virt. eigenvalues --    3.13452   3.13932   3.15220   3.15701   3.18174
 Alpha virt. eigenvalues --    3.26131   3.30761   3.38592   3.99375   4.16497
 Alpha virt. eigenvalues --    4.19681   4.22006   4.27116   4.28302   4.30189
 Alpha virt. eigenvalues --    4.33306   4.37811   4.38858   4.39682   4.42639
 Alpha virt. eigenvalues --    4.43477   4.46305   4.47920   4.49422   4.51500
 Alpha virt. eigenvalues --    4.56387   4.63907   4.69883   4.72570   4.77077
 Alpha virt. eigenvalues --    5.68323   5.78684   6.32747
          Condensed to atoms (all electrons):
               1          2          3          4          5          6
     1  C    5.788717  -0.136230   0.027922  -0.010071  -0.053457  -0.001939
     2  C   -0.136230   6.240155  -0.423961  -0.057182   0.154732   0.020213
     3  C    0.027922  -0.423961   7.193839   0.322172  -0.786176  -0.111647
     4  N   -0.010071  -0.057182   0.322172   7.646547   0.461632  -0.196702
     5  C   -0.053457   0.154732  -0.786176   0.461632   6.714371   0.541450
     6  O   -0.001939   0.020213  -0.111647  -0.196702   0.541450   8.501357
     7  N   -0.003588   0.010516  -0.186968  -0.329724   0.292073  -0.097468
     8  C   -0.006940   0.010375  -0.274695  -0.144768  -0.259338  -0.194239
     9  C   -0.004643  -0.015228  -0.200959  -0.059892  -0.566102   0.255773
    10  C    0.000198   0.006369   0.002867  -0.015820  -0.205562  -0.056851
    11  C    0.000123   0.001632   0.011000  -0.018560   0.173651  -0.019816
    12  C   -0.000319  -0.000997  -0.036347   0.007229  -0.626303   0.004507
    13  C   -0.000640  -0.002417  -0.057721   0.011225  -0.439606   0.081546
    14  H    0.434277  -0.107959   0.026701   0.000383  -0.002199   0.000005
    15  H    0.420641  -0.066617  -0.012269   0.000500   0.001664  -0.000028
    16  H    0.422958  -0.068995  -0.010355   0.000616  -0.000114  -0.000046
    17  H   -0.016912   0.413855  -0.078650   0.006754  -0.008902  -0.000184
    18  H   -0.031967   0.427922  -0.089122   0.007380   0.001342  -0.000061
    19  H    0.001051  -0.048650   0.437549  -0.051593  -0.031867   0.002533
    20  H   -0.005251  -0.040918   0.440259  -0.051304  -0.034827   0.003300
    21  H   -0.001151   0.000711  -0.057775   0.191126   0.023995   0.005410
    22  H    0.000097   0.000638   0.002604   0.027319  -0.041434   0.004166
    23  H    0.000011   0.000100   0.003021  -0.000268   0.012292  -0.003546
    24  H   -0.000001   0.000023  -0.000155   0.000539   0.001774   0.000020
    25  H    0.000000   0.000000   0.000024   0.000009   0.003389   0.000000
    26  S   -0.000002  -0.000066  -0.000211   0.001361  -0.030449  -0.000796
    27  O   -0.000000  -0.000000  -0.000003   0.000008  -0.000734  -0.000007
    28  O   -0.000000  -0.000000  -0.000007   0.000005  -0.001221  -0.000011
    29  H   -0.000000   0.000003  -0.000051  -0.000012  -0.003509   0.000366
    30  C   -0.000000   0.000004  -0.000060  -0.000094  -0.000911   0.000137
    31  F    0.000000   0.000000   0.000000  -0.000000   0.000014   0.000000
    32  F    0.000000  -0.000000   0.000000   0.000000   0.000016  -0.000001
    33  F   -0.000000  -0.000000  -0.000001   0.000000  -0.000146  -0.000002
    34  O    0.003676   0.004661  -0.006023  -0.026820  -0.001792  -0.000525
    35  O    0.000098  -0.001182   0.010174   0.009154   0.006554  -0.000184
    36  C   -0.001668  -0.003618   0.002710  -0.009145  -0.004370  -0.000085
    37  C    0.001167   0.000484   0.008877  -0.006549  -0.005586  -0.000294
    38  C   -0.000129  -0.000459  -0.000012   0.001617   0.000560   0.000035
    39  H   -0.000002  -0.000009   0.000023   0.000024  -0.000024  -0.000000
    40  H    0.000012   0.000061  -0.000040  -0.000049  -0.000086   0.000000
    41  H    0.000000   0.000008  -0.000013  -0.000005  -0.000081   0.000000
    42  H    0.000000   0.000001  -0.000002  -0.000001   0.000010   0.000000
    43  H   -0.000000  -0.000000   0.000003   0.000005   0.000049  -0.000000
               7          8          9         10         11         12
     1  C   -0.003588  -0.006940  -0.004643   0.000198   0.000123  -0.000319
     2  C    0.010516   0.010375  -0.015228   0.006369   0.001632  -0.000997
     3  C   -0.186968  -0.274695  -0.200959   0.002867   0.011000  -0.036347
     4  N   -0.329724  -0.144768  -0.059892  -0.015820  -0.018560   0.007229
     5  C    0.292073  -0.259338  -0.566102  -0.205562   0.173651  -0.626303
     6  O   -0.097468  -0.194239   0.255773  -0.056851  -0.019816   0.004507
     7  N    7.740815   0.037181  -0.077510  -0.024773   0.001612  -0.012947
     8  C    0.037181  12.472301   0.516006   0.286986  -0.088060  -2.460325
     9  C   -0.077510   0.516006  11.314529  -2.729216  -1.841584  -1.710851
    10  C   -0.024773   0.286986  -2.729216  11.750857  -1.310309  -0.905556
    11  C    0.001612  -0.088060  -1.841584  -1.310309  13.121106  -0.633795
    12  C   -0.012947  -2.460325  -1.710851  -0.905556  -0.633795  13.043145
    13  C    0.102569  -3.512177   1.481646  -1.314352  -3.299031   1.355499
    14  H    0.000007  -0.000031  -0.000003  -0.000000  -0.000000  -0.000000
    15  H    0.000024   0.000014  -0.000008   0.000001   0.000000  -0.000000
    16  H    0.000016   0.000012  -0.000070   0.000012   0.000001  -0.000000
    17  H   -0.000134  -0.000719  -0.000524   0.000265   0.000021  -0.000005
    18  H    0.000238  -0.000672   0.000310  -0.000044  -0.000006   0.000001
    19  H   -0.000886  -0.001707   0.000556  -0.000306  -0.000064   0.000018
    20  H    0.000210  -0.002852  -0.000024   0.000134   0.000017  -0.000023
    21  H    0.028384   0.007926   0.004256  -0.001604  -0.000256  -0.000044
    22  H    0.179845   0.030359   0.028113  -0.037354  -0.014301   0.005906
    23  H   -0.010419  -0.026794   0.319938   0.003143  -0.015477   0.032092
    24  H   -0.001483  -0.066097  -0.012625   0.258888   0.082789   0.048380
    25  H    0.000503   0.027963   0.001924  -0.071310   0.340678   0.005902
    26  S    0.008149  -0.688152  -0.543723   0.531090  -0.184253  -1.169944
    27  O    0.000399  -0.040435  -0.078147   0.116312  -0.124115  -0.145378
    28  O    0.000209  -0.033667  -0.018446  -0.024009  -0.132127  -0.250240
    29  H   -0.001259   0.046045  -0.010208  -0.006816   0.020447  -0.010453
    30  C   -0.001143   0.111774   0.100872  -0.014077   0.186760   0.021469
    31  F   -0.000003   0.002574   0.007717  -0.000781  -0.001057   0.046209
    32  F    0.000031  -0.004651  -0.006861   0.009167   0.025667  -0.056357
    33  F    0.000016  -0.003813   0.011850  -0.004804  -0.027674  -0.091695
    34  O    0.008989   0.005242   0.002617  -0.006139  -0.002403  -0.000118
    35  O   -0.005390  -0.101840  -0.016866   0.068650   0.034126   0.000997
    36  C   -0.008934   0.027597  -0.000737  -0.019434  -0.011136  -0.003953
    37  C   -0.010877  -0.007496  -0.006389   0.005108  -0.001720  -0.002232
    38  C    0.002553  -0.011735  -0.000950   0.003526   0.006959   0.000326
    39  H    0.000055  -0.000594  -0.000044   0.000549   0.000083   0.000000
    40  H    0.000046   0.000299   0.000020  -0.000234  -0.000095  -0.000004
    41  H    0.000010   0.001698   0.000111  -0.000724  -0.001403  -0.000065
    42  H   -0.000000   0.000053   0.000003  -0.000059  -0.000005   0.000001
    43  H    0.000025  -0.002229  -0.000135   0.000935   0.001509   0.000033
              13         14         15         16         17         18
     1  C   -0.000640   0.434277   0.420641   0.422958  -0.016912  -0.031967
     2  C   -0.002417  -0.107959  -0.066617  -0.068995   0.413855   0.427922
     3  C   -0.057721   0.026701  -0.012269  -0.010355  -0.078650  -0.089122
     4  N    0.011225   0.000383   0.000500   0.000616   0.006754   0.007380
     5  C   -0.439606  -0.002199   0.001664  -0.000114  -0.008902   0.001342
     6  O    0.081546   0.000005  -0.000028  -0.000046  -0.000184  -0.000061
     7  N    0.102569   0.000007   0.000024   0.000016  -0.000134   0.000238
     8  C   -3.512177  -0.000031   0.000014   0.000012  -0.000719  -0.000672
     9  C    1.481646  -0.000003  -0.000008  -0.000070  -0.000524   0.000310
    10  C   -1.314352  -0.000000   0.000001   0.000012   0.000265  -0.000044
    11  C   -3.299031  -0.000000   0.000000   0.000001   0.000021  -0.000006
    12  C    1.355499  -0.000000  -0.000000  -0.000000  -0.000005   0.000001
    13  C   11.244294  -0.000000  -0.000000  -0.000004  -0.000024   0.000012
    14  H   -0.000000   0.481690  -0.023962  -0.023881  -0.003135  -0.003097
    15  H   -0.000000  -0.023962   0.487969  -0.028562  -0.004640   0.003773
    16  H   -0.000004  -0.023881  -0.028562   0.487832   0.003775  -0.004642
    17  H   -0.000024  -0.003135  -0.004640   0.003775   0.488611  -0.031258
    18  H    0.000012  -0.003097   0.003773  -0.004642  -0.031258   0.489066
    19  H    0.000404  -0.000055  -0.000302   0.002697   0.003783  -0.005293
    20  H   -0.000206  -0.000054   0.002820  -0.000323  -0.005292   0.003787
    21  H    0.000109  -0.000002  -0.000000   0.000000   0.000704   0.000542
    22  H    0.005679  -0.000000  -0.000000  -0.000000   0.000001   0.000001
    23  H   -0.008011  -0.000000  -0.000000   0.000000  -0.000000  -0.000000
    24  H   -0.009160  -0.000000   0.000000   0.000000  -0.000000   0.000000
    25  H    0.008534  -0.000000   0.000000   0.000000  -0.000000   0.000000
    26  S    0.259809  -0.000000  -0.000000  -0.000000  -0.000000   0.000000
    27  O   -0.058273  -0.000000  -0.000000  -0.000000  -0.000000   0.000000
    28  O    0.137130  -0.000000   0.000000  -0.000000  -0.000000   0.000000
    29  H    0.267694  -0.000000   0.000000   0.000000  -0.000000  -0.000000
    30  C   -0.183207  -0.000000   0.000000  -0.000000   0.000000  -0.000000
    31  F    0.015585   0.000000   0.000000   0.000000  -0.000000   0.000000
    32  F   -0.040044  -0.000000   0.000000  -0.000000  -0.000000  -0.000000
    33  F    0.072666  -0.000000   0.000000  -0.000000  -0.000000   0.000000
    34  O    0.000432  -0.000021  -0.000001  -0.000001  -0.000653  -0.000046
    35  O   -0.000826  -0.000000   0.000000   0.000000   0.000004   0.000010
    36  C   -0.000140  -0.000030  -0.000018   0.000000  -0.000349  -0.000586
    37  C   -0.000402   0.000019  -0.000004   0.000000   0.000242  -0.000494
    38  C   -0.000325   0.000000  -0.000000  -0.000000  -0.000016  -0.000010
    39  H   -0.000003  -0.000000   0.000000   0.000000  -0.000000   0.000000
    40  H    0.000002  -0.000000   0.000000  -0.000000  -0.000000  -0.000000
    41  H    0.000013  -0.000000   0.000000  -0.000000  -0.000000  -0.000000
    42  H    0.000000   0.000000  -0.000000  -0.000000  -0.000000  -0.000000
    43  H   -0.000020   0.000000  -0.000000   0.000000   0.000000  -0.000000
              19         20         21         22         23         24
     1  C    0.001051  -0.005251  -0.001151   0.000097   0.000011  -0.000001
     2  C   -0.048650  -0.040918   0.000711   0.000638   0.000100   0.000023
     3  C    0.437549   0.440259  -0.057775   0.002604   0.003021  -0.000155
     4  N   -0.051593  -0.051304   0.191126   0.027319  -0.000268   0.000539
     5  C   -0.031867  -0.034827   0.023995  -0.041434   0.012292   0.001774
     6  O    0.002533   0.003300   0.005410   0.004166  -0.003546   0.000020
     7  N   -0.000886   0.000210   0.028384   0.179845  -0.010419  -0.001483
     8  C   -0.001707  -0.002852   0.007926   0.030359  -0.026794  -0.066097
     9  C    0.000556  -0.000024   0.004256   0.028113   0.319938  -0.012625
    10  C   -0.000306   0.000134  -0.001604  -0.037354   0.003143   0.258888
    11  C   -0.000064   0.000017  -0.000256  -0.014301  -0.015477   0.082789
    12  C    0.000018  -0.000023  -0.000044   0.005906   0.032092   0.048380
    13  C    0.000404  -0.000206   0.000109   0.005679  -0.008011  -0.009160
    14  H   -0.000055  -0.000054  -0.000002  -0.000000  -0.000000  -0.000000
    15  H   -0.000302   0.002820  -0.000000  -0.000000  -0.000000   0.000000
    16  H    0.002697  -0.000323   0.000000  -0.000000   0.000000   0.000000
    17  H    0.003783  -0.005292   0.000704   0.000001  -0.000000  -0.000000
    18  H   -0.005293   0.003787   0.000542   0.000001  -0.000000   0.000000
    19  H    0.497840  -0.040260   0.001773   0.000004  -0.000001  -0.000000
    20  H   -0.040260   0.498490   0.001563   0.000004   0.000000   0.000000
    21  H    0.001773   0.001563   0.261154   0.003470   0.000001   0.000003
    22  H    0.000004   0.000004   0.003470   0.253522  -0.000075   0.004039
    23  H   -0.000001   0.000000   0.000001  -0.000075   0.410051  -0.000085
    24  H   -0.000000   0.000000   0.000003   0.004039  -0.000085   0.412331
    25  H   -0.000000  -0.000000  -0.000000  -0.000006   0.000009  -0.003851
    26  S   -0.000001   0.000001  -0.000004   0.000252  -0.001596   0.000750
    27  O    0.000000  -0.000000  -0.000000   0.000001   0.000017   0.000127
    28  O   -0.000000   0.000000  -0.000000   0.000000   0.000016   0.000006
    29  H   -0.000000  -0.000000  -0.000000   0.000001  -0.004385   0.000010
    30  C    0.000000  -0.000000  -0.000000  -0.000003   0.000133   0.000058
    31  F   -0.000000   0.000000   0.000000  -0.000000  -0.000000  -0.000000
    32  F    0.000000  -0.000000   0.000000   0.000000  -0.000004   0.000000
    33  F    0.000000  -0.000000  -0.000000  -0.000000  -0.000003   0.000000
    34  O   -0.000056   0.000005   0.041175   0.002143   0.000001  -0.000002
    35  O   -0.000007   0.000000   0.001077   0.038458   0.000005  -0.001286
    36  C    0.000285   0.000039  -0.005773  -0.003890  -0.000026  -0.000519
    37  C    0.000066  -0.000000   0.002200   0.003916  -0.000002   0.001032
    38  C   -0.000002   0.000002  -0.000314  -0.000047  -0.000000  -0.000284
    39  H    0.000000  -0.000000  -0.000002  -0.000006   0.000000  -0.000000
    40  H   -0.000000  -0.000000   0.000000  -0.000005   0.000000   0.000000
    41  H   -0.000000   0.000000   0.000000  -0.000001   0.000000   0.000001
    42  H   -0.000000  -0.000000   0.000000   0.000000  -0.000000   0.000000
    43  H    0.000000  -0.000000   0.000000  -0.000000   0.000000   0.000000
              25         26         27         28         29         30
     1  C    0.000000  -0.000002  -0.000000  -0.000000  -0.000000  -0.000000
     2  C    0.000000  -0.000066  -0.000000  -0.000000   0.000003   0.000004
     3  C    0.000024  -0.000211  -0.000003  -0.000007  -0.000051  -0.000060
     4  N    0.000009   0.001361   0.000008   0.000005  -0.000012  -0.000094
     5  C    0.003389  -0.030449  -0.000734  -0.001221  -0.003509  -0.000911
     6  O    0.000000  -0.000796  -0.000007  -0.000011   0.000366   0.000137
     7  N    0.000503   0.008149   0.000399   0.000209  -0.001259  -0.001143
     8  C    0.027963  -0.688152  -0.040435  -0.033667   0.046045   0.111774
     9  C    0.001924  -0.543723  -0.078147  -0.018446  -0.010208   0.100872
    10  C   -0.071310   0.531090   0.116312  -0.024009  -0.006816  -0.014077
    11  C    0.340678  -0.184253  -0.124115  -0.132127   0.020447   0.186760
    12  C    0.005902  -1.169944  -0.145378  -0.250240  -0.010453   0.021469
    13  C    0.008534   0.259809  -0.058273   0.137130   0.267694  -0.183207
    14  H   -0.000000  -0.000000  -0.000000  -0.000000  -0.000000  -0.000000
    15  H    0.000000  -0.000000  -0.000000   0.000000   0.000000   0.000000
    16  H    0.000000  -0.000000  -0.000000  -0.000000   0.000000  -0.000000
    17  H   -0.000000  -0.000000  -0.000000  -0.000000  -0.000000   0.000000
    18  H    0.000000   0.000000   0.000000   0.000000  -0.000000  -0.000000
    19  H   -0.000000  -0.000001   0.000000  -0.000000  -0.000000   0.000000
    20  H   -0.000000   0.000001  -0.000000   0.000000  -0.000000  -0.000000
    21  H   -0.000000  -0.000004  -0.000000  -0.000000  -0.000000  -0.000000
    22  H   -0.000006   0.000252   0.000001   0.000000   0.000001  -0.000003
    23  H    0.000009  -0.001596   0.000017   0.000016  -0.004385   0.000133
    24  H   -0.003851   0.000750   0.000127   0.000006   0.000010   0.000058
    25  H    0.398407  -0.010296   0.002420  -0.000915  -0.000107  -0.000098
    26  S   -0.010296  16.455683   0.513974   0.513255   0.005167  -0.585634
    27  O    0.002420   0.513974   8.830705  -0.176804   0.000258  -0.201507
    28  O   -0.000915   0.513255  -0.176804   8.771879  -0.001539  -0.198435
    29  H   -0.000107   0.005167   0.000258  -0.001539   0.406916   0.000579
    30  C   -0.000098  -0.585634  -0.201507  -0.198435   0.000579   5.477666
    31  F    0.000008  -0.096407  -0.010957  -0.003706   0.000049   0.230511
    32  F   -0.000011   0.079676   0.015932   0.011838  -0.000722   0.098079
    33  F   -0.000006   0.025592   0.014273   0.012640   0.001898   0.109448
    34  O    0.000000  -0.000011  -0.000000  -0.000000  -0.000000  -0.000000
    35  O    0.000008  -0.000054  -0.000001  -0.000000  -0.000000  -0.000002
    36  C    0.000007  -0.000321  -0.000010  -0.000006   0.000001   0.000009
    37  C   -0.000000  -0.000049  -0.000002  -0.000000   0.000000   0.000002
    38  C   -0.000004   0.000007   0.000001  -0.000000   0.000000  -0.000000
    39  H   -0.000000   0.000000   0.000000   0.000000   0.000000  -0.000000
    40  H   -0.000000  -0.000000  -0.000000  -0.000000   0.000000   0.000000
    41  H    0.000000  -0.000001  -0.000000  -0.000000  -0.000000   0.000000
    42  H    0.000000   0.000000   0.000000  -0.000000   0.000000  -0.000000
    43  H   -0.000000   0.000001   0.000000   0.000000  -0.000000  -0.000000
              31         32         33         34         35         36
     1  C    0.000000   0.000000  -0.000000   0.003676   0.000098  -0.001668
     2  C    0.000000  -0.000000  -0.000000   0.004661  -0.001182  -0.003618
     3  C    0.000000   0.000000  -0.000001  -0.006023   0.010174   0.002710
     4  N   -0.000000   0.000000   0.000000  -0.026820   0.009154  -0.009145
     5  C    0.000014   0.000016  -0.000146  -0.001792   0.006554  -0.004370
     6  O    0.000000  -0.000001  -0.000002  -0.000525  -0.000184  -0.000085
     7  N   -0.000003   0.000031   0.000016   0.008989  -0.005390  -0.008934
     8  C    0.002574  -0.004651  -0.003813   0.005242  -0.101840   0.027597
     9  C    0.007717  -0.006861   0.011850   0.002617  -0.016866  -0.000737
    10  C   -0.000781   0.009167  -0.004804  -0.006139   0.068650  -0.019434
    11  C   -0.001057   0.025667  -0.027674  -0.002403   0.034126  -0.011136
    12  C    0.046209  -0.056357  -0.091695  -0.000118   0.000997  -0.003953
    13  C    0.015585  -0.040044   0.072666   0.000432  -0.000826  -0.000140
    14  H    0.000000  -0.000000  -0.000000  -0.000021  -0.000000  -0.000030
    15  H    0.000000   0.000000   0.000000  -0.000001   0.000000  -0.000018
    16  H    0.000000  -0.000000  -0.000000  -0.000001   0.000000   0.000000
[...]
 000218,0.00000088,-0.00000123,-0.00000510,-0.00000168,-0.00000010,0.00
 000222,-0.00000320,0.,-0.00000033,0.00000063,-0.00000023,-0.00000020,0
 .00000004,-0.00000008,-0.00000015,-0.00000006,-0.00000015,-0.00000031,
 0.00000215,0.00000084,0.00000082,0.00000128,-0.00000066,-0.00000270,0.
 00000248,-0.00000045,-0.00000102,0.00000128,-0.00000153,-0.00000889,-0
 .00015212,0.00000456,0.00000692,0.00016269,-0.00006227,-0.00000011,-0.
 00000009,0.00000045,0.00000433,0.00000299,0.00000311,-0.00000023,0.000
 00042,0.00000057,0.00000613,0.00000322,0.00000183,-0.00000161,0.000000
 06,-0.00000105,-0.00000128,-0.00000237,-0.00000042,-0.00000071,-0.0000
 0010,0.00000038,0.00000046,0.00000157,-0.00000079,-0.00000119,-0.00000
 039,0.00000060,-0.00000028,-0.00000105,-0.00000025,0.,-0.00000046,0.00
 000018,-0.00016983,0.00196507,-0.00119843,0.00055903,-0.00171525,-0.00
 009679,-0.00350222,-0.00164647,0.00196765,-0.12417525,-0.01679617,0.12
 222136,-0.01650066,-0.00318742,0.02462622,0.00897710,0.00285846,-0.013
 58460,0.13726416,0.00000077,0.00000253,0.00000152,0.00000392,-0.000007
 09,-0.00000445,-0.00001510,0.00000860,-0.00000423,0.00002951,0.0000156
 1,0.00004031,-0.00015182,0.00006154,-0.00001907,0.00004762,-0.00008771
 ,0.00001610,-0.00004615,-0.00039918,0.00019509,0.00014744,-0.00000122,
 0.00001664,-0.00004306,-0.00002572,-0.00000351,-0.00003481,0.00003042,
 -0.00001284,0.00001415,0.00000643,0.00000239,-0.00003338,-0.00001080,-
 0.00000325,0.00001601,-0.00001063,0.00000521,0.00000143,-0.00000021,0.
 00000040,0.00000016,-0.00000022,0.00000009,0.00000027,-0.00000024,0.00
 000005,-0.00000201,0.00000173,-0.00000060,0.00000131,-0.00000134,0.000
 00228,0.00000224,-0.00000233,0.00000014,0.00000553,-0.00000230,0.00000
 237,-0.00003491,0.00005531,-0.00009068,0.00005916,0.00069189,-0.000356
 36,0.00000069,0.00000102,-0.00000020,0.00002631,0.00000249,0.00000715,
 -0.00000230,-0.00000048,0.00000060,0.00003683,0.00000837,0.00000307,-0
 .00000962,0.00000339,-0.00000230,-0.00000732,-0.00000744,0.00000090,-0
 .00000314,-0.00000046,0.00000100,-0.00000139,-0.00000368,-0.00000946,-
 0.00000493,0.00000008,0.00000451,-0.00000008,0.00000205,0.00000181,0.0
 0000027,-0.00000023,0.00000216,0.00068163,-0.00035064,-0.00341372,-0.0
 0183849,-0.00704691,-0.00285984,-0.01719036,-0.00147487,0.03145847,-0.
 01745518,-0.05032701,0.03226830,0.00852885,0.00122397,-0.01304876,0.00
 863204,0.00222473,-0.01285834,0.01679271,0.05534262,0.00000131,0.00000
 023,-0.00000035,-0.00000345,0.00000304,-0.00000168,0.00001441,-0.00000
 513,0.00000212,-0.00000525,0.00003559,-0.00002362,0.00004351,-0.000025
 81,0.00000753,-0.00001322,0.00003982,-0.00001131,0.00002352,0.00013549
 ,-0.00003730,-0.00005742,0.00000401,-0.00000263,0.00001754,0.00001040,
 -0.00000217,0.00001423,-0.00001439,0.00000013,-0.00000664,-0.00000233,
 0.00000192,0.00001488,0.00000478,0.00000055,-0.00000673,0.00000459,-0.
 00000143,-0.00000228,-0.00000053,-0.00000019,-0.00000006,-0.00000019,0
 .00000001,-0.00000051,0.00000051,0.00000030,0.00000050,-0.00000024,0.0
 0000004,-0.00000092,0.00000065,0.00000132,-0.00000273,0.00000183,0.000
 00004,-0.00000413,0.00000173,-0.00000100,0.00000400,-0.00004966,0.0000
 3925,-0.00002120,-0.00024136,0.00006184,-0.00000009,-0.00000043,-0.000
 00009,-0.00001059,0.00000077,-0.00000257,0.00000066,-0.00000016,-0.000
 00019,-0.00001740,-0.00000580,-0.00000180,0.00000461,-0.00000101,0.000
 00113,0.00000367,0.00000465,-0.00000031,0.00000130,0.00000028,-0.00000
 008,-0.00000037,-0.00000001,0.00000408,0.00000281,0.00000029,-0.000002
 16,0.00000033,0.00000016,-0.00000048,0.00000006,0.00000036,-0.00000098
 ,-0.00092837,0.00062710,0.00142613,-0.00005840,0.00148091,-0.00015195,
 0.00323939,-0.00222876,-0.00502117,0.12151684,0.02988798,-0.23162304,-
 0.00363291,-0.00111832,0.00517055,0.01291342,0.00376770,-0.02030419,-0
 .13262123,-0.03218508,0.24833354,0.00000067,-0.00000047,-0.00000006,-0
 .00000104,0.00000110,0.00000104,0.00000888,-0.00000066,0.00000152,0.00
 000886,0.00004889,-0.00001607,-0.00001975,-0.00000832,0.00000606,0.000
 00452,0.00001722,-0.00000676,0.00000709,0.00002502,-0.00000937,-0.0000
 1151,-0.00000149,0.00000430,0.00000384,0.00000184,-0.00000299,0.000003
 53,-0.00000420,-0.00000101,-0.00000161,0.00000077,0.00000034,0.0000032
 7,0.00000060,-0.00000061,-0.00000162,0.00000086,0.00000031,-0.00000036
 ,0.00000005,0.00000015,-0.00000049,0.00000060,-0.00000076,-0.00000018,
 0.00000019,0.00000010,-0.00000105,-0.00000014,0.00000088,0.00000035,-0
 .00000105,-0.00000172,-0.00000190,0.00000154,-0.00000035,-0.00000168,0
 .00000202,-0.00000151,-0.00000060,-0.00007415,0.00001847,0.00000157,-0
 .00004148,0.00001536,-0.00000021,0.00000007,0.00000052,-0.00000257,0.0
 0000913,0.00000072,0.00000035,-0.00000055,0.00000028,-0.00000299,-0.00
 000116,0.00000139,0.00000054,-0.00000009,-0.00000063,0.00000073,0.0000
 0074,-0.00000086,0.00000024,0.00000016,0.00000011,0.00000141,0.0000006
 7,0.00000222,0.00000004,-0.00000012,-0.00000064,-0.00000020,-0.0000002
 5,-0.00000064,-0.00000043,0.00000020,-0.00000079,0.00008593,0.00053715
 ,-0.00036572,0.00109493,0.00023597,-0.00034779,-0.00008413,-0.00209138
 ,0.00054666,-0.01687642,-0.00305474,0.02586135,-0.12720370,-0.01551455
 ,0.12255707,0.00125440,-0.00075166,-0.00013849,-0.00502457,0.00322647,
 -0.00127845,0.13917402,-0.00000011,-0.00000028,0.00000038,0.,0.0000004
 7,-0.00000027,0.00000276,-0.00000235,0.00000010,-0.00000459,-0.0000023
 6,0.00000103,0.00002246,-0.00001082,0.00000013,-0.00000645,0.00001136,
 -0.00000179,0.00000273,0.00003894,-0.00001439,-0.00000959,0.00000526,0
 .00000827,0.00000294,0.00000155,-0.00000271,0.00000028,-0.00000864,-0.
 00000075,-0.00000277,-0.00000028,0.00000031,0.00000493,0.00000285,0.00
 000015,-0.00000038,0.00000250,0.00000007,-0.00000031,-0.00000001,-0.00
 000007,0.00000016,-0.00000011,0.00000009,-0.00000013,0.00000014,0.,0.0
 0000051,-0.00000005,-0.00000023,-0.00000023,0.00000013,0.00000031,-0.0
 0000057,0.00000053,0.00000015,-0.00000069,0.00000012,-0.00000008,0.000
 00009,-0.00000279,0.00000362,-0.00001083,-0.00006684,0.00002004,0.0000
 0036,-0.00000003,-0.00000060,-0.00000061,0.00000416,-0.00000629,-0.000
 00089,-0.00000064,-0.00000048,-0.00001010,-0.00000492,-0.00000195,0.00
 000281,0.,0.00000091,0.00000248,0.00000386,0.00000034,0.00000041,0.000
 00008,-0.00000012,-0.00000234,-0.00000266,0.00000194,0.00000262,0.0000
 0068,-0.00000127,0.00000091,0.00000174,0.00000017,0.00000044,0.0000007
 3,-0.00000062,-0.00004967,0.00006633,0.00022121,0.00029557,-0.00017492
 ,-0.00014204,-0.00024761,0.00015246,-0.00076263,0.00776279,0.00103857,
 -0.01270438,-0.01641604,-0.05031954,0.02402525,-0.00072211,0.00038004,
 0.00022078,0.00275109,-0.00079195,0.00044901,0.01525265,0.05031734,-0.
 00000077,0.00000007,0.00000008,0.00000060,0.00000008,-0.00000129,-0.00
 000293,0.00000022,-0.00000056,-0.00001054,-0.00002354,0.00000887,0.000
 01989,-0.00000008,0.00000009,-0.00000493,-0.00000374,0.00000144,-0.000
 00529,0.00000297,-0.00000211,0.00000741,0.00000239,-0.00000607,-0.0000
 0157,0.00000066,0.00000280,-0.00000355,-0.00000025,0.00000128,0.000002
 30,-0.00000118,0.00000274,-0.00000147,0.00000090,-0.00000042,0.0000011
 6,0.00000062,-0.00000078,0.00000016,0.00000017,-0.00000007,0.00000023,
 -0.00000025,0.00000055,0.00000019,-0.00000018,-0.00000012,0.00000027,0
 .00000024,-0.00000006,0.00000010,0.00000017,0.00000091,0.00000021,-0.0
 0000047,-0.00000011,0.00000056,-0.00000067,0.00000079,0.00000765,0.000
 03209,-0.00001233,-0.00000677,-0.00001302,-0.00000494,0.00000038,0.000
 00028,-0.00000043,-0.00000041,-0.00001319,-0.00000180,-0.00000177,-0.0
 0000067,-0.00000050,-0.00000081,-0.00000482,0.00000022,0.00000006,0.00
 000220,-0.00000045,0.00000059,0.00000282,-0.00000006,0.,-0.00000001,-0
 .00000008,-0.00000110,-0.00000372,0.00000089,0.00000099,0.00000067,-0.
 00000031,0.00000031,0.00000189,0.00000033,-0.00000029,0.00000097,-0.00
 000085,-0.00012833,-0.00048704,-0.00003512,-0.00107625,0.00044802,0.00
 022721,0.00112307,0.00092810,0.00012714,-0.00331692,-0.00103919,0.0048
 8078,0.12392002,0.02247644,-0.23948467,0.00048786,-0.00038132,0.000718
 36,-0.00095018,0.00072007,0.00130064,-0.13491685,-0.02671127,0.2558783
 4,0.00000206,-0.00000044,0.00000046,-0.00000783,0.00000158,-0.00000141
 ,0.00004396,-0.00000555,0.00000542,0.00006419,0.00023154,-0.00006864,-
 0.00010198,-0.00004091,0.00000678,0.00002481,0.00007551,-0.00002204,0.
 00004582,0.00007224,-0.00001882,-0.00005598,-0.00001169,0.00000195,0.0
 0001600,0.00001051,-0.00000230,0.00001698,-0.00000690,0.00000291,-0.00
 000604,-0.00000222,-0.00000024,0.00001420,0.00000349,0.00000073,-0.000
 00776,0.00000200,-0.00000145,-0.00000221,0.00000032,-0.00000029,-0.000
 00115,0.00000116,-0.00000114,-0.00000126,0.00000149,0.00000008,-0.0000
 0173,0.00000047,0.00000554,-0.00000024,-0.00000323,-0.00000466,-0.0000
 0814,0.00000753,-0.00000101,-0.00000810,0.00000658,-0.00000470,-0.0000
 3847,-0.00035400,0.00010710,-0.00001221,-0.00013988,0.00003735,-0.0000
 0074,-0.00000129,0.00000034,-0.00000992,0.00000339,-0.00000150,0.00000
 142,0.00000042,-0.00000002,-0.00001290,-0.00000213,-0.00000095,0.00000
 311,-0.00000163,0.00000078,0.00000222,0.00000187,-0.00000042,0.0000008
 1,0.00000018,-0.00000002,0.00000124,0.00000217,0.00000343,0.00000136,-
 0.00000019,-0.00000155,-0.00000019,-0.00000123,-0.00000079,-0.00000019
 ,-0.00000008,-0.00000070,-0.00155643,0.00376716,-0.00082758,0.00142066
 ,0.00015103,0.00000213,-0.00573228,-0.00259267,0.00033700,0.00365866,0
 .03242247,-0.00629093,-0.05038674,-0.02970679,0.00591317,0.00131595,-0
 .00081501,-0.00004206,0.00131905,-0.00071144,0.00041113,-0.00209415,-0
 .01710350,0.00161986,0.05418041,-0.00000208,0.00000105,-0.00000065,0.0
 0000529,-0.00000263,0.00000178,-0.00003531,0.00000702,-0.00000522,-0.0
 0003384,-0.00015027,0.00004521,0.00003578,0.00005061,-0.00001381,-0.00
 000620,-0.00007481,0.00002360,-0.00005037,-0.00012302,0.00003318,0.000
 06693,0.00000432,0.00000672,-0.00002006,-0.00001405,0.00000127,-0.0000
 1906,0.00000979,-0.00000740,0.00000802,0.00000449,0.00000080,-0.000019
 87,-0.00000670,-0.00000113,0.00000904,-0.00000437,0.00000277,0.0000025
 0,0.00000026,0.00000012,0.00000101,-0.00000097,0.00000128,0.00000116,-
 0.00000145,-0.00000032,0.00000073,-0.00000018,-0.00000377,-0.00000022,
 0.00000227,0.00000295,0.00000707,-0.00000626,0.00000066,0.00000668,-0.
 00000533,0.00000401,0.00001186,0.00026888,-0.00008044,0.00004432,0.000
 25388,-0.00006911,0.00000035,0.00000066,-0.00000047,0.00001248,0.00000
 386,-0.00000021,-0.00000068,0.00000033,-0.00000009,0.00002407,0.000006
 37,0.00000174,-0.00000683,0.00000166,-0.00000145,-0.00000513,-0.000005
 39,0.00000080,-0.00000133,-0.00000037,0.00000010,0.00000040,-0.0000011
 7,-0.00000604,-0.00000376,-0.00000021,0.00000305,-0.00000043,0.0000003
 7,0.00000112,-0.00000011,-0.00000031,0.00000143,0.00137492,-0.00224069
 ,0.00052386,0.00030813,-0.00111759,0.00026546,0.00144910,0.00295756,-0
 .00039777,-0.00303918,-0.01223522,0.00210484,-0.02791484,-0.30805539,0
 .05069742,-0.00004950,0.00062143,0.00024753,-0.00013887,0.00038947,-0.
 00041979,-0.00050737,-0.00164285,0.00047760,0.02972006,0.33301373,0.00
 000055,-0.00000036,-0.00000012,-0.00000129,0.00000101,0.00000062,0.000
 00844,-0.00000127,0.00000150,0.00000800,0.00003759,-0.00000947,-0.0000
 1003,-0.00001239,0.00000162,0.00000188,0.00001754,-0.00000555,0.000010
 72,0.00003218,0.00000431,-0.00001511,-0.00000245,-0.00000505,0.0000045
 1,0.00000345,0.00000089,0.00000434,-0.00000258,0.00000073,-0.00000192,
 -0.00000046,0.00000182,0.00000446,0.00000137,-0.00000030,-0.00000199,0
 .00000117,-0.00000024,-0.00000060,-0.00000004,0.00000001,-0.00000021,0
 .00000024,-0.00000033,-0.00000029,0.00000031,0.00000007,-0.00000011,0.
 00000002,0.00000069,-0.00000002,-0.00000045,-0.00000073,-0.00000181,0.
 00000155,-0.00000018,-0.00000152,0.00000104,-0.00000099,-0.00000270,-0
 .00006315,0.00001893,-0.00000832,-0.00005761,0.00000938,-0.00000006,-0
 .00000022,0.00000001,-0.00000266,-0.00000168,-0.00000311,0.00000021,-0
 .00000015,-0.00000027,-0.00000561,-0.00000163,-0.00000089,0.00000159,-
 0.00000041,0.00000055,0.00000117,0.00000139,-0.00000008,0.00000032,0.0
 0000004,-0.00000014,-0.00000042,-0.00000019,0.00000119,0.00000102,0.00
 000014,-0.00000069,0.00000020,0.00000020,-0.00000014,0.00000010,0.0000
 0013,-0.00000025,-0.00032339,0.00057262,-0.00005727,-0.00004487,0.0002
 5331,0.00016071,-0.00047625,-0.00051862,0.00090456,0.00073619,0.003137
 40,-0.00176557,0.00559075,0.05060124,-0.05887533,0.00030659,0.00009951
 ,-0.00001815,-0.00020828,-0.00031479,0.00020276,0.00183269,0.02708083,
 -0.00416761,-0.00571722,-0.05607203,0.05751938,0.00000050,-0.00000022,
 0.00000044,-0.00000102,0.00000037,-0.00000179,0.00000842,-0.00000056,0
 .00000034,0.00000671,0.00004655,-0.00001254,-0.00001812,-0.00000958,-0
 .00000061,0.00000385,0.00001673,-0.00000353,0.00000662,0.00002643,-0.0
 0000356,-0.00001217,-0.00000075,0.00000558,0.00000400,0.00000170,-0.00
 000349,0.00000299,-0.00000488,-0.00000237,-0.00000133,0.00000100,0.000
 00275,0.00000342,0.00000066,-0.00000017,-0.00000163,0.00000096,0.00000
 117,-0.00000029,-0.00000003,-0.00000021,-0.00000012,0.00000006,-0.0000
 0021,-0.00000052,0.00000083,0.00000019,0.00000006,0.00000018,0.0000021
 4,-0.00000051,-0.00000097,-0.00000055,-0.00000154,0.00000226,0.0000000
 2,-0.00000185,0.00000142,-0.00000084,0.00000119,-0.00006547,0.00002366
 ,0.00000303,-0.00004415,0.00000842,-0.00000016,-0.00000031,-0.00000049
 ,-0.00000154,0.00000737,-0.00000586,0.00000031,-0.00000065,-0.00000018
 ,-0.00000333,-0.00000144,-0.00000189,0.00000082,-0.00000045,0.00000076
 ,0.00000064,0.00000135,0.00000028,0.00000023,0.00000013,-0.00000010,0.
 00000009,-0.00000090,-0.00000015,0.00000042,0.00000018,-0.00000019,0.0
 0000012,0.00000086,0.00000032,0.00000016,0.00000019,0.00000023,0.00007
 022,0.00063199,0.00014820,0.00101194,0.00035972,0.00026292,-0.00003365
 ,-0.00209700,0.00025115,-0.01550917,-0.01299046,-0.02360531,-0.1145830
 3,-0.05682513,-0.10205548,-0.00506638,0.00342703,-0.00041577,0.0012684
 2,-0.00066982,0.00044421,0.00967596,0.00848053,0.01323685,-0.00208632,
 -0.00123485,-0.00168907,0.12525257,0.00000026,-0.00000025,-0.00000001,
 -0.00000018,-0.00000014,-0.00000058,0.00000337,-0.00000183,0.00000159,
 0.00000195,0.00000907,-0.00000173,0.00000859,-0.00000421,0.00000712,-0
 .00000258,0.00000951,-0.00000502,0.00000369,0.00003173,-0.00000630,-0.
 00000959,-0.00000075,-0.00000650,0.00000338,0.00000167,-0.00000020,0.0
 0000101,-0.00000510,0.00000404,-0.00000276,0.00000058,0.00000142,0.000
 00397,0.00000141,-0.00000021,-0.00000082,0.00000170,-0.00000074,-0.000
 00026,-0.00000005,0.,-0.00000014,0.00000009,-0.00000009,-0.00000003,0.
 00000011,0.00000008,-0.00000044,0.00000014,0.00000008,0.00000008,0.,0.
 00000019,-0.00000060,0.00000051,0.,-0.00000074,0.00000033,-0.00000045,
 -0.00000444,-0.00001811,0.00000124,-0.00000591,-0.00005254,0.00001075,
 -0.00000006,0.00000004,0.00000025,-0.00000158,0.00001022,-0.00000099,-
 0.00000015,-0.00000015,0.,-0.00000680,-0.00000118,-0.00000039,0.000001
 98,-0.00000081,0.00000014,0.00000158,0.00000140,-0.00000039,0.00000023
 ,0.00000010,0.00000005,-0.00000024,0.00000039,0.00000170,0.00000102,-0
 .00000003,-0.00000075,0.00000018,-0.00000016,-0.00000034,0.00000016,0.
 00000004,-0.00000021,0.00003482,0.00014554,-0.00029734,0.00075519,-0.0
 0015010,0.00039420,-0.00076459,0.00001637,0.00073341,0.00753320,0.0064
 2229,0.01220901,-0.05818481,-0.09578713,-0.08839947,0.00282466,-0.0008
 3154,0.00061469,-0.00083921,0.00048040,-0.00016290,0.00268994,0.001002
 18,0.00358497,-0.01498240,-0.01190880,-0.02479379,0.06093909,0.1006270
 6,0.00000077,0.00000020,0.00000029,-0.00000048,-0.00000103,-0.00000091
 ,0.00000211,0.00000058,-0.00000079,0.00001095,0.00002695,-0.00000422,-
 0.00002780,0.00000197,-0.00000469,0.00000693,0.00000072,0.00000218,0.0
 0000437,-0.00001749,0.00000452,-0.00000505,-0.00000201,0.00001083,0.00
 000026,-0.00000206,-0.00000294,0.00000396,0.00000037,-0.00000827,-0.00
 000162,0.00000313,0.00000293,-0.00000015,-0.00000210,-0.00000058,-0.00
 000077,-0.00000089,0.00000216,-0.00000003,-0.00000019,-0.00000002,-0.0
 0000008,0.,-0.00000014,-0.00000037,0.00000058,0.00000024,-0.00000012,0
 .00000043,0.00000104,-0.00000039,-0.00000033,-0.00000006,-0.00000031,0
 .00000100,0.00000019,-0.00000010,0.00000014,-0.00000021,-0.00000584,-0
 .00003132,0.00000785,0.00001191,0.00002970,-0.00001729,-0.00000045,-0.
 00000065,-0.00000054,0.00000124,0.00000738,-0.00000651,0.00000221,0.00
 000030,-0.00000082,0.00000345,0.00000577,-0.00000397,-0.00000057,-0.00
 000250,0.00000254,-0.00000137,-0.00000316,0.00000131,-0.00000007,-0.00
 000007,-0.00000016,0.00000028,0.00000126,-0.00000433,-0.00000126,-0.00
 000029,0.00000129,-0.00000018,-0.00000041,0.00000091,0.00000065,-0.000
 00092,0.00000219,0.00014373,0.00044704,-0.00009408,0.00086704,-0.00028
 569,0.00034351,-0.00093869,-0.00104731,0.00013426,-0.00067872,-0.00032
 977,-0.00181030,-0.10293728,-0.08667621,-0.20674942,-0.00052186,0.0003
 7937,0.00138090,-0.00014582,0.00043684,0.00063682,-0.01375946,-0.01168
 318,-0.01943270,0.00455425,0.00263040,0.00608270,0.11341473,0.09611346
 ,0.21952434\\-0.00000006,0.00000253,-0.00000139,0.00000011,0.00000251,
 -0.00000056,-0.00000052,0.00000187,0.00000011,0.00000240,-0.00000091,-
 0.00001095,-0.00000029,-0.00000311,0.00000386,-0.00000020,0.00000394,-
 0.00000466,0.00000367,-0.00000208,-0.00000537,-0.00000849,0.00000709,-
 0.00000047,0.00000080,-0.00000287,-0.00000467,0.00000978,-0.00000324,0
 .00000099,-0.00000912,-0.00000784,-0.00000002,0.00001119,0.00000961,-0
 .00000173,0.00000148,-0.00000774,-0.00000428,0.00000030,0.00000343,-0.
 00000045,0.00000080,0.00000099,-0.00000189,0.00000109,0.00000373,-0.00
 000306,-0.00000031,0.00000108,0.00000126,0.00000004,0.00000445,0.00000
 016,0.00000154,0.00000277,-0.00000400,0.00000122,-0.00000054,-0.000002
 65,0.00000119,0.00000736,0.00000146,-0.00000035,-0.00000392,0.00000523
 ,0.00000306,-0.00000115,-0.00000593,-0.00000109,0.00000040,0.00000149,
 0.00000074,-0.00000088,0.00000061,-0.00000311,-0.00000491,-0.00000794,
 0.00000202,-0.00000426,-0.00000305,0.00000035,-0.00000608,-0.00000626,
 0.00000120,-0.00000174,-0.00000635,-0.00000218,0.00000068,-0.00000014,
 -0.00000162,-0.00000801,-0.00000294,0.00000045,-0.00000831,-0.00000029
 ,0.00000674,-0.00001122,-0.00000472,0.00000398,-0.00000046,0.00000413,
 0.00000724,0.00000749,-0.00000086,-0.00001511,-0.00000119,0.00000808,-
 0.00000215,0.00000447,0.00000591,-0.00000203,0.00000226,0.00000859,-0.
 00000300,0.00000152,0.00000877,-0.00000213,0.00000502,0.00000796,-0.00
 000294,0.00000067,0.00000846,-0.00000382,0.00000317,0.00001015,-0.0000
 0286,0.00000343,0.00000741\\\@


 ERWIN WITH HIS PSI CAN DO
 CALCULATIONS QUITE A FEW.
 BUT ONE THING HAS NOT BEEN SEEN
 JUST WHAT DOES PSI REALLY MEAN.
 -- WALTER HUCKEL, TRANS. BY FELIX BLOCH
 Job cpu time:       0 days 10 hours 24 minutes 42.3 seconds.
 File lengths (MBytes):  RWF=   1453 Int=      0 D2E=      0 Chk=     33 Scr=      1
 Normal termination of Gaussian 09 at Tue Feb 19 14:45:20 2019.
WARNING: pbs_rusage is deprecated and values produced may not be accurate


=============================================================================
                                     Resource usage:
                                       CPU time:              28:58:12
   JobId:    5880889.r-man2            Elapsed time:          03:41:14
   Project:             q95            Requested time:        50:00:00
   Service Units:     29.50 
                                       Max physical memory:     1575MB
                                       Max virtual memory:      3390MB
                                       Requested memory:           0MB

                                       Number of cpus:               8

                                       Max jobfs disk use:       1.4GB
                                       Requested jobfs:         24.0GB
=============================================================================

