 Entering Gaussian System, Link 0=/apps/gaussian/g09e01/g09/g09
 AtFile(1): /home/507/hio507/Basis/6-31pGd.gbs
 Initial command:
 /apps/gaussian/g09e01/g09/l1.exe "/jobfs/local/5880901.r-man2/Gau-11807.inp" -scrdir="/jobfs/local/5880901.r-man2/"
 Entering Link 1 = /apps/gaussian/g09e01/g09/l1.exe PID=     11808.
  
 Copyright (c) 1988,1990,1992,1993,1995,1998,2003,2009,2015,
            Gaussian, Inc.  All Rights Reserved.
  
 This is part of the Gaussian(R) 09 program.  It is based on
 the Gaussian(R) 03 system (copyright 2003, Gaussian, Inc.),
 the Gaussian(R) 98 system (copyright 1998, Gaussian, Inc.),
 the Gaussian(R) 94 system (copyright 1995, Gaussian, Inc.),
 the Gaussian 92(TM) system (copyright 1992, Gaussian, Inc.),
 the Gaussian 90(TM) system (copyright 1990, Gaussian, Inc.),
 the Gaussian 88(TM) system (copyright 1988, Gaussian, Inc.),
 the Gaussian 86(TM) system (copyright 1986, Carnegie Mellon
 University), and the Gaussian 82(TM) system (copyright 1983,
 Carnegie Mellon University). Gaussian is a federally registered
 trademark of Gaussian, Inc.
  
 This software contains proprietary and confidential information,
 including trade secrets, belonging to Gaussian, Inc.
  
 This software is provided under written license and may be
 used, copied, transmitted, or stored only in accord with that
 written license.
  
 The following legend is applicable only to US Government
 contracts under FAR:
  
                    RESTRICTED RIGHTS LEGEND
  
 Use, reproduction and disclosure by the US Government is
 subject to restrictions as set forth in subparagraphs (a)
 and (c) of the Commercial Computer Software - Restricted
 Rights clause in FAR 52.227-19.
  
 Gaussian, Inc.
 340 Quinnipiac St., Bldg. 40, Wallingford CT 06492
  
  
 ---------------------------------------------------------------
 Warning -- This program may not be used in any manner that
 competes with the business of Gaussian, Inc. or will provide
 assistance to any competitor of Gaussian, Inc.  The licensee
 of this program is prohibited from giving any competitor of
 Gaussian, Inc. access to this program.  By using this program,
 the user acknowledges that Gaussian, Inc. is engaged in the
 business of creating and licensing software in the field of
 computational chemistry and represents and warrants to the
 licensee that it is not a competitor of Gaussian, Inc. and that
 it will not use this program in any manner prohibited above.
 ---------------------------------------------------------------
  

 Cite this work as:
 Gaussian 09, Revision E.01,
 M. J. Frisch, G. W. Trucks, H. B. Schlegel, G. E. Scuseria, 
 M. A. Robb, J. R. Cheeseman, G. Scalmani, V. Barone, B. Mennucci, 
 G. A. Petersson, H. Nakatsuji, M. Caricato, X. Li, H. P. Hratchian, 
 A. F. Izmaylov, J. Bloino, G. Zheng, J. L. Sonnenberg, M. Hada, 
 M. Ehara, K. Toyota, R. Fukuda, J. Hasegawa, M. Ishida, T. Nakajima, 
 Y. Honda, O. Kitao, H. Nakai, T. Vreven, J. A. Montgomery, Jr., 
 J. E. Peralta, F. Ogliaro, M. Bearpark, J. J. Heyd, E. Brothers, 
 K. N. Kudin, V. N. Staroverov, T. Keith, R. Kobayashi, J. Normand, 
 K. Raghavachari, A. Rendell, J. C. Burant, S. S. Iyengar, J. Tomasi, 
 M. Cossi, N. Rega, J. M. Millam, M. Klene, J. E. Knox, J. B. Cross, 
 V. Bakken, C. Adamo, J. Jaramillo, R. Gomperts, R. E. Stratmann, 
 O. Yazyev, A. J. Austin, R. Cammi, C. Pomelli, J. W. Ochterski, 
 R. L. Martin, K. Morokuma, V. G. Zakrzewski, G. A. Voth, 
 P. Salvador, J. J. Dannenberg, S. Dapprich, A. D. Daniels, 
 O. Farkas, J. B. Foresman, J. V. Ortiz, J. Cioslowski, 
 and D. J. Fox, Gaussian, Inc., Wallingford CT, 2013.
 
 ******************************************
 Gaussian 09:  ES64L-G09RevE.01 30-Nov-2015
                19-Feb-2019 
 ******************************************
 %chk=4SulfOxyCF3_EtO.M062X_6-31pGd_opt.chk
 %mem=196608000
 %nproc=8
 Will use up to    8 processors via shared memory.
 ----------------------------------------------------------------------
 # M062X/Gen 6D SCF=Tight INT(grid=ultrafine) OPT IOP(2/17=4) maxdisk=3
 221225472
 ----------------------------------------------------------------------
 1/14=-1,18=20,19=15,26=4,38=1/1,3;
 2/9=110,12=2,17=4,18=5,40=1/2;
 3/5=7,8=2,11=2,16=1,25=1,30=1,71=1,74=-55,75=-5/1,2,3;
 4//1;
 5/5=2,32=2,38=5/2;
 6/7=2,8=2,9=2,10=2,28=1/1;
 7//1,2,3,16;
 1/14=-1,18=20,19=15,26=4/3(2);
 2/9=110,17=4/2;
 99//99;
 2/9=110,17=4/2;
 3/5=7,6=1,8=2,11=2,16=1,25=1,30=1,71=1,74=-55,75=-5,82=7/1,2,3;
 4/5=5,16=3,69=1/1;
 5/5=2,32=2,38=5/2;
 7//1,2,3,16;
 1/14=-1,18=20,19=15,26=4/3(-5);
 2/9=110,17=4/2;
 6/7=2,8=2,9=2,10=2,19=2,28=1/1;
 99/9=1/99;
 ---------------------------------
 4SulfOxyCF3_EtO.M062X_6-31pGd_opt
 ---------------------------------
 Symbolic Z-matrix:
 Charge = -1 Multiplicity = 1
 C                    -2.21487   2.55808  -0.31091 
 C                    -0.93532   1.76313  -0.06794 
 C                     0.30651   2.63885  -0.26441 
 N                     1.5256    1.88057  -0.03571 
 C                     2.75638   2.45591  -0.16225 
 O                     2.82967   3.63284  -0.47648 
 N                     3.88466   1.70563   0.05312 
 C                     5.25712   2.14224  -0.04121 
 C                     5.65667   3.48017  -0.28841 
 C                     6.27335   1.17847   0.12597 
 C                     7.62456   1.52517   0.04605 
 C                     7.99746   2.84796  -0.2015 
 C                     7.01068   3.82026  -0.36541 
 H                    -3.09621   1.89909  -0.16319 
 H                    -2.23435   2.9505   -1.35004 
 H                    -2.28247   3.4078    0.40148 
 H                    -0.90204   0.9085   -0.77839 
 H                    -0.95015   1.36661   0.97056 
 H                     0.26796   3.49304   0.44723 
 H                     0.31166   3.03371  -1.30446 
 H                     1.44573   0.77962   0.25309 
 H                     3.71787   0.60582   0.33046 
 H                     4.9682    4.29307  -0.42194 
 H                     6.02765   0.14303   0.31631 
 H                     8.37759   0.75901   0.17792 
 S                     9.7278    3.31461  -0.30727 
 O                     10.53     2.05235  -0.66094 
 O                     10.23238   3.52725   1.12789 
 H                     7.29041   4.8491   -0.5538 
 C                     10.3768   4.66599  -1.33318 
 F                     11.75544   4.69594  -1.24203 
 F                     10.01198   4.46054  -2.6498 
 F                     9.86483   5.8708   -0.89134 
 O                     1.349    -1.0997    1.12266 
 O                     3.56882  -1.27054   1.21065 
 C                     2.4747   -1.77018   1.44418 
 C                     2.35767  -3.12485   2.09036 
 C                     3.71147  -3.76173   2.40293 
 H                     1.79359  -3.79667   1.4088 
 H                     1.78599  -3.01772   3.03691 
 H                     4.29632  -3.90354   1.4691 
 H                     3.55469  -4.75322   2.87774 
 H                     4.28726  -3.11994   3.10365 
 
 Add virtual bond connecting atoms O34        and H21        Dist= 3.92D+00.
 Add virtual bond connecting atoms O35        and H22        Dist= 3.93D+00.

 GradGradGradGradGradGradGradGradGradGradGradGradGradGradGradGradGradGrad
 Berny optimization.
 Initialization pass.
                           ----------------------------
                           !    Initial Parameters    !
                           ! (Angstroms and Degrees)  !
 --------------------------                            --------------------------
 ! Name  Definition              Value          Derivative Info.                !
 --------------------------------------------------------------------------------
 ! R1    R(1,2)                  1.5259         estimate D2E/DX2                !
 ! R2    R(1,14)                 1.1103         estimate D2E/DX2                !
 ! R3    R(1,15)                 1.1109         estimate D2E/DX2                !
 ! R4    R(1,16)                 1.1109         estimate D2E/DX2                !
 ! R5    R(2,3)                  1.5322         estimate D2E/DX2                !
 ! R6    R(2,17)                 1.1119         estimate D2E/DX2                !
 ! R7    R(2,18)                 1.1117         estimate D2E/DX2                !
 ! R8    R(3,4)                  1.4538         estimate D2E/DX2                !
 ! R9    R(3,19)                 1.1125         estimate D2E/DX2                !
 ! R10   R(3,20)                 1.1125         estimate D2E/DX2                !
 ! R11   R(4,5)                  1.3645         estimate D2E/DX2                !
 ! R12   R(4,21)                 1.141          estimate D2E/DX2                !
 ! R13   R(5,6)                  1.2204         estimate D2E/DX2                !
 ! R14   R(5,7)                  1.372          estimate D2E/DX2                !
 ! R15   R(7,8)                  1.4433         estimate D2E/DX2                !
 ! R16   R(7,22)                 1.1464         estimate D2E/DX2                !
 ! R17   R(8,9)                  1.418          estimate D2E/DX2                !
 ! R18   R(8,10)                 1.4105         estimate D2E/DX2                !
 ! R19   R(9,13)                 1.3982         estimate D2E/DX2                !
 ! R20   R(9,23)                 1.0736         estimate D2E/DX2                !
 ! R21   R(10,11)                1.3973         estimate D2E/DX2                !
 ! R22   R(10,24)                1.0811         estimate D2E/DX2                !
 ! R23   R(11,12)                1.3965         estimate D2E/DX2                !
 ! R24   R(11,25)                1.0823         estimate D2E/DX2                !
 ! R25   R(12,13)                1.395          estimate D2E/DX2                !
 ! R26   R(12,26)                1.7953         estimate D2E/DX2                !
 ! R27   R(13,29)                1.0827         estimate D2E/DX2                !
 ! R28   R(21,34)                2.073          estimate D2E/DX2                !
 ! R29   R(22,35)                2.0779         estimate D2E/DX2                !
 ! R30   R(26,27)                1.5368         estimate D2E/DX2                !
 ! R31   R(26,28)                1.5361         estimate D2E/DX2                !
 ! R32   R(26,30)                1.8166         estimate D2E/DX2                !
 ! R33   R(30,31)                1.382          estimate D2E/DX2                !
 ! R34   R(30,32)                1.3816         estimate D2E/DX2                !
 ! R35   R(30,33)                1.3816         estimate D2E/DX2                !
 ! R36   R(34,36)                1.3491         estimate D2E/DX2                !
 ! R37   R(35,36)                1.2253         estimate D2E/DX2                !
 ! R38   R(36,37)                1.5054         estimate D2E/DX2                !
 ! R39   R(37,38)                1.5284         estimate D2E/DX2                !
 ! R40   R(37,39)                1.1109         estimate D2E/DX2                !
 ! R41   R(37,40)                1.111          estimate D2E/DX2                !
 ! R42   R(38,41)                1.1109         estimate D2E/DX2                !
 ! R43   R(38,42)                1.1104         estimate D2E/DX2                !
 ! R44   R(38,43)                1.1111         estimate D2E/DX2                !
 ! A1    A(2,1,14)             109.587          estimate D2E/DX2                !
 ! A2    A(2,1,15)             110.3455         estimate D2E/DX2                !
 ! A3    A(2,1,16)             110.3293         estimate D2E/DX2                !
 ! A4    A(14,1,15)            108.6732         estimate D2E/DX2                !
 ! A5    A(14,1,16)            108.6842         estimate D2E/DX2                !
 ! A6    A(15,1,16)            109.1822         estimate D2E/DX2                !
 ! A7    A(1,2,3)              111.1908         estimate D2E/DX2                !
 ! A8    A(1,2,17)             108.8934         estimate D2E/DX2                !
 ! A9    A(1,2,18)             108.8676         estimate D2E/DX2                !
 ! A10   A(3,2,17)             109.4585         estimate D2E/DX2                !
 ! A11   A(3,2,18)             109.5389         estimate D2E/DX2                !
 ! A12   A(17,2,18)            108.8524         estimate D2E/DX2                !
 ! A13   A(2,3,4)              111.184          estimate D2E/DX2                !
 ! A14   A(2,3,19)             109.1925         estimate D2E/DX2                !
 ! A15   A(2,3,20)             109.0558         estimate D2E/DX2                !
 ! A16   A(4,3,19)             109.2035         estimate D2E/DX2                !
 ! A17   A(4,3,20)             109.1667         estimate D2E/DX2                !
 ! A18   A(19,3,20)            109.0064         estimate D2E/DX2                !
 ! A19   A(3,4,5)              121.4579         estimate D2E/DX2                !
 ! A20   A(3,4,21)             118.9734         estimate D2E/DX2                !
 ! A21   A(5,4,21)             119.5685         estimate D2E/DX2                !
 ! A22   A(4,5,6)              118.9925         estimate D2E/DX2                !
 ! A23   A(4,5,7)              119.7782         estimate D2E/DX2                !
 ! A24   A(6,5,7)              121.2271         estimate D2E/DX2                !
 ! A25   A(5,7,8)              127.3234         estimate D2E/DX2                !
 ! A26   A(5,7,22)             116.2923         estimate D2E/DX2                !
 ! A27   A(8,7,22)             116.382          estimate D2E/DX2                !
 ! A28   A(7,8,9)              124.3843         estimate D2E/DX2                !
 ! A29   A(7,8,10)             118.0771         estimate D2E/DX2                !
 ! A30   A(9,8,10)             117.5384         estimate D2E/DX2                !
 ! A31   A(8,9,13)             120.7944         estimate D2E/DX2                !
 ! A32   A(8,9,23)             123.7379         estimate D2E/DX2                !
 ! A33   A(13,9,23)            115.4667         estimate D2E/DX2                !
 ! A34   A(8,10,11)            121.3594         estimate D2E/DX2                !
 ! A35   A(8,10,24)            120.7677         estimate D2E/DX2                !
 ! A36   A(11,10,24)           117.8724         estimate D2E/DX2                !
 ! A37   A(10,11,12)           120.2256         estimate D2E/DX2                !
 ! A38   A(10,11,25)           119.3538         estimate D2E/DX2                !
 ! A39   A(12,11,25)           120.4206         estimate D2E/DX2                !
 ! A40   A(11,12,13)           119.4829         estimate D2E/DX2                !
 ! A41   A(11,12,26)           120.933          estimate D2E/DX2                !
 ! A42   A(13,12,26)           119.5839         estimate D2E/DX2                !
 ! A43   A(9,13,12)            120.5987         estimate D2E/DX2                !
 ! A44   A(9,13,29)            119.4008         estimate D2E/DX2                !
 ! A45   A(12,13,29)           120.0005         estimate D2E/DX2                !
 ! A46   A(12,26,27)           107.6478         estimate D2E/DX2                !
 ! A47   A(12,26,28)           107.3101         estimate D2E/DX2                !
 ! A48   A(12,26,30)           124.8189         estimate D2E/DX2                !
 ! A49   A(27,26,28)            99.0469         estimate D2E/DX2                !
 ! A50   A(27,26,30)           107.1307         estimate D2E/DX2                !
 ! A51   A(28,26,30)           107.8973         estimate D2E/DX2                !
 ! A52   A(26,30,31)           109.5895         estimate D2E/DX2                !
 ! A53   A(26,30,32)           109.4649         estimate D2E/DX2                !
 ! A54   A(26,30,33)           109.6163         estimate D2E/DX2                !
 ! A55   A(31,30,32)           109.2383         estimate D2E/DX2                !
 ! A56   A(31,30,33)           109.2487         estimate D2E/DX2                !
 ! A57   A(32,30,33)           109.6689         estimate D2E/DX2                !
 ! A58   A(21,34,36)           120.7689         estimate D2E/DX2                !
 ! A59   A(22,35,36)           120.8651         estimate D2E/DX2                !
 ! A60   A(34,36,35)           119.8022         estimate D2E/DX2                !
 ! A61   A(34,36,37)           118.9883         estimate D2E/DX2                !
 ! A62   A(35,36,37)           121.2093         estimate D2E/DX2                !
 ! A63   A(36,37,38)           113.1961         estimate D2E/DX2                !
 ! A64   A(36,37,39)           108.6824         estimate D2E/DX2                !
 ! A65   A(36,37,40)           108.5985         estimate D2E/DX2                !
 ! A66   A(38,37,39)           108.8586         estimate D2E/DX2                !
 ! A67   A(38,37,40)           108.7675         estimate D2E/DX2                !
 ! A68   A(39,37,40)           108.6483         estimate D2E/DX2                !
 ! A69   A(37,38,41)           110.3397         estimate D2E/DX2                !
 ! A70   A(37,38,42)           109.5386         estimate D2E/DX2                !
 ! A71   A(37,38,43)           110.3227         estimate D2E/DX2                !
 ! A72   A(41,38,42)           108.6491         estimate D2E/DX2                !
 ! A73   A(41,38,43)           109.3322         estimate D2E/DX2                !
 ! A74   A(42,38,43)           108.6183         estimate D2E/DX2                !
 ! A75   L(4,21,34,2,-1)       181.2123         estimate D2E/DX2                !
 ! A76   L(7,22,35,1,-1)       184.1568         estimate D2E/DX2                !
 ! A77   L(4,21,34,2,-2)       190.7848         estimate D2E/DX2                !
 ! A78   L(7,22,35,1,-2)       191.228          estimate D2E/DX2                !
 ! D1    D(14,1,2,3)           179.9177         estimate D2E/DX2                !
 ! D2    D(14,1,2,17)           59.2331         estimate D2E/DX2                !
 ! D3    D(14,1,2,18)          -59.3144         estimate D2E/DX2                !
 ! D4    D(15,1,2,3)            60.288          estimate D2E/DX2                !
 ! D5    D(15,1,2,17)          -60.3967         estimate D2E/DX2                !
 ! D6    D(15,1,2,18)         -178.9442         estimate D2E/DX2                !
 ! D7    D(16,1,2,3)           -60.449          estimate D2E/DX2                !
 ! D8    D(16,1,2,17)          178.8663         estimate D2E/DX2                !
 ! D9    D(16,1,2,18)           60.3188         estimate D2E/DX2                !
 ! D10   D(1,2,3,4)           -179.8764         estimate D2E/DX2                !
 ! D11   D(1,2,3,19)            59.5645         estimate D2E/DX2                !
 ! D12   D(1,2,3,20)           -59.4525         estimate D2E/DX2                !
 ! D13   D(17,2,3,4)           -59.5251         estimate D2E/DX2                !
 ! D14   D(17,2,3,19)          179.9158         estimate D2E/DX2                !
 ! D15   D(17,2,3,20)           60.8988         estimate D2E/DX2                !
 ! D16   D(18,2,3,4)            59.7516         estimate D2E/DX2                !
 ! D17   D(18,2,3,19)          -60.8075         estimate D2E/DX2                !
 ! D18   D(18,2,3,20)         -179.8245         estimate D2E/DX2                !
 ! D19   D(2,3,4,5)            179.6165         estimate D2E/DX2                !
 ! D20   D(2,3,4,21)            -0.2209         estimate D2E/DX2                !
 ! D21   D(19,3,4,5)           -59.831          estimate D2E/DX2                !
 ! D22   D(19,3,4,21)          120.3317         estimate D2E/DX2                !
 ! D23   D(20,3,4,5)            59.2581         estimate D2E/DX2                !
 ! D24   D(20,3,4,21)         -120.5793         estimate D2E/DX2                !
 ! D25   D(3,4,5,6)             -0.1089         estimate D2E/DX2                !
 ! D26   D(3,4,5,7)           -179.5715         estimate D2E/DX2                !
 ! D27   D(21,4,5,6)           179.7275         estimate D2E/DX2                !
 ! D28   D(21,4,5,7)             0.2649         estimate D2E/DX2                !
 ! D29   D(3,4,34,36)         -174.4148         estimate D2E/DX2                !
 ! D30   D(5,4,34,36)           -1.5332         estimate D2E/DX2                !
 ! D31   D(4,5,7,8)            179.6918         estimate D2E/DX2                !
 ! D32   D(4,5,7,22)             0.2602         estimate D2E/DX2                !
 ! D33   D(6,5,7,8)              0.2415         estimate D2E/DX2                !
 ! D34   D(6,5,7,22)          -179.1902         estimate D2E/DX2                !
 ! D35   D(5,7,8,9)              4.7392         estimate D2E/DX2                !
 ! D36   D(5,7,8,10)          -175.4172         estimate D2E/DX2                !
 ! D37   D(22,7,8,9)          -175.8296         estimate D2E/DX2                !
 ! D38   D(22,7,8,10)            4.014          estimate D2E/DX2                !
 ! D39   D(5,7,35,36)            1.3769         estimate D2E/DX2                !
 ! D40   D(8,7,35,36)          174.9323         estimate D2E/DX2                !
 ! D41   D(7,8,9,13)          -179.9817         estimate D2E/DX2                !
 ! D42   D(7,8,9,23)             0.4055         estimate D2E/DX2                !
 ! D43   D(10,8,9,13)            0.1739         estimate D2E/DX2                !
 ! D44   D(10,8,9,23)         -179.4389         estimate D2E/DX2                !
 ! D45   D(7,8,10,11)          179.8884         estimate D2E/DX2                !
 ! D46   D(7,8,10,24)            0.1723         estimate D2E/DX2                !
 ! D47   D(9,8,10,11)           -0.2572         estimate D2E/DX2                !
 ! D48   D(9,8,10,24)         -179.9733         estimate D2E/DX2                !
 ! D49   D(8,9,13,12)            0.0607         estimate D2E/DX2                !
 ! D50   D(8,9,13,29)         -179.9169         estimate D2E/DX2                !
 ! D51   D(23,9,13,12)         179.704          estimate D2E/DX2                !
 ! D52   D(23,9,13,29)          -0.2736         estimate D2E/DX2                !
 ! D53   D(8,10,11,12)           0.1061         estimate D2E/DX2                !
 ! D54   D(8,10,11,25)        -179.9007         estimate D2E/DX2                !
 ! D55   D(24,10,11,12)        179.8302         estimate D2E/DX2                !
 ! D56   D(24,10,11,25)         -0.1767         estimate D2E/DX2                !
 ! D57   D(10,11,12,13)          0.1356         estimate D2E/DX2                !
 ! D58   D(10,11,12,26)        179.9729         estimate D2E/DX2                !
 ! D59   D(25,11,12,13)       -179.8575         estimate D2E/DX2                !
 ! D60   D(25,11,12,26)         -0.0202         estimate D2E/DX2                !
 ! D61   D(11,12,13,9)          -0.2179         estimate D2E/DX2                !
 ! D62   D(11,12,13,29)        179.7595         estimate D2E/DX2                !
 ! D63   D(26,12,13,9)         179.9425         estimate D2E/DX2                !
 ! D64   D(26,12,13,29)         -0.0801         estimate D2E/DX2                !
 ! D65   D(11,12,26,27)         22.7773         estimate D2E/DX2                !
 ! D66   D(11,12,26,28)        -83.0052         estimate D2E/DX2                !
 ! D67   D(11,12,26,30)        149.4882         estimate D2E/DX2                !
 ! D68   D(13,12,26,27)       -157.3855         estimate D2E/DX2                !
 ! D69   D(13,12,26,28)         96.8319         estimate D2E/DX2                !
 ! D70   D(13,12,26,30)        -30.6747         estimate D2E/DX2                !
 ! D71   D(12,26,30,31)       -176.2776         estimate D2E/DX2                !
 ! D72   D(12,26,30,32)        -56.4944         estimate D2E/DX2                !
 ! D73   D(12,26,30,33)         63.8334         estimate D2E/DX2                !
 ! D74   D(27,26,30,31)        -49.3505         estimate D2E/DX2                !
 ! D75   D(27,26,30,32)         70.4327         estimate D2E/DX2                !
 ! D76   D(27,26,30,33)       -169.2395         estimate D2E/DX2                !
 ! D77   D(28,26,30,31)         56.4596         estimate D2E/DX2                !
 ! D78   D(28,26,30,32)        176.2428         estimate D2E/DX2                !
 ! D79   D(28,26,30,33)        -63.4293         estimate D2E/DX2                !
 ! D80   D(21,34,36,35)         -0.6228         estimate D2E/DX2                !
 ! D81   D(21,34,36,37)        179.2172         estimate D2E/DX2                !
 ! D82   D(22,35,36,34)          0.2682         estimate D2E/DX2                !
 ! D83   D(22,35,36,37)       -179.5682         estimate D2E/DX2                !
 ! D84   D(34,36,37,38)       -179.7514         estimate D2E/DX2                !
 ! D85   D(34,36,37,39)         59.1762         estimate D2E/DX2                !
 ! D86   D(34,36,37,40)        -58.8535         estimate D2E/DX2                !
 ! D87   D(35,36,37,38)          0.0863         estimate D2E/DX2                !
 ! D88   D(35,36,37,39)       -120.9861         estimate D2E/DX2                !
 ! D89   D(35,36,37,40)        120.9842         estimate D2E/DX2                !
 ! D90   D(36,37,38,41)        -60.5482         estimate D2E/DX2                !
 ! D91   D(36,37,38,42)        179.8858         estimate D2E/DX2                !
 ! D92   D(36,37,38,43)         60.3683         estimate D2E/DX2                !
 ! D93   D(39,37,38,41)         60.4246         estimate D2E/DX2                !
 ! D94   D(39,37,38,42)        -59.1413         estimate D2E/DX2                !
 ! D95   D(39,37,38,43)       -178.6589         estimate D2E/DX2                !
 ! D96   D(40,37,38,41)        178.6495         estimate D2E/DX2                !
 ! D97   D(40,37,38,42)         59.0836         estimate D2E/DX2                !
 ! D98   D(40,37,38,43)        -60.434          estimate D2E/DX2                !
 --------------------------------------------------------------------------------
 Trust Radius=3.00D-01 FncErr=1.00D-07 GrdErr=1.00D-06
 Number of steps in this run=    230 maximum allowed number of steps=    258.
 GradGradGradGradGradGradGradGradGradGradGradGradGradGradGradGradGradGrad

                          Input orientation:                          
 ---------------------------------------------------------------------
 Center     Atomic      Atomic             Coordinates (Angstroms)
 Number     Number       Type             X           Y           Z
 ---------------------------------------------------------------------
      1          6           0       -2.214870    2.558080   -0.310910
      2          6           0       -0.935320    1.763130   -0.067940
      3          6           0        0.306510    2.638850   -0.264410
      4          7           0        1.525600    1.880570   -0.035710
      5          6           0        2.756380    2.455910   -0.162250
      6          8           0        2.829670    3.632840   -0.476480
      7          7           0        3.884660    1.705630    0.053120
      8          6           0        5.257120    2.142240   -0.041210
      9          6           0        5.656670    3.480170   -0.288410
     10          6           0        6.273350    1.178470    0.125970
     11          6           0        7.624560    1.525170    0.046050
     12          6           0        7.997460    2.847960   -0.201500
     13          6           0        7.010680    3.820260   -0.365410
     14          1           0       -3.096210    1.899090   -0.163190
     15          1           0       -2.234350    2.950500   -1.350040
     16          1           0       -2.282470    3.407800    0.401480
     17          1           0       -0.902040    0.908500   -0.778390
     18          1           0       -0.950150    1.366610    0.970560
     19          1           0        0.267960    3.493040    0.447230
     20          1           0        0.311660    3.033710   -1.304460
     21          1           0        1.445730    0.779620    0.253090
     22          1           0        3.717870    0.605820    0.330460
     23          1           0        4.968200    4.293070   -0.421940
     24          1           0        6.027650    0.143030    0.316310
     25          1           0        8.377590    0.759010    0.177920
     26         16           0        9.727800    3.314610   -0.307270
     27          8           0       10.530000    2.052350   -0.660940
     28          8           0       10.232380    3.527250    1.127890
     29          1           0        7.290410    4.849100   -0.553800
     30          6           0       10.376800    4.665990   -1.333180
     31          9           0       11.755440    4.695940   -1.242030
     32          9           0       10.011980    4.460540   -2.649800
     33          9           0        9.864830    5.870800   -0.891340
     34          8           0        1.349000   -1.099700    1.122660
     35          8           0        3.568820   -1.270540    1.210650
     36          6           0        2.474700   -1.770180    1.444180
     37          6           0        2.357670   -3.124850    2.090360
     38          6           0        3.711470   -3.761730    2.402930
     39          1           0        1.793590   -3.796670    1.408800
     40          1           0        1.785990   -3.017720    3.036910
     41          1           0        4.296320   -3.903540    1.469100
     42          1           0        3.554690   -4.753220    2.877740
     43          1           0        4.287260   -3.119940    3.103650
 ---------------------------------------------------------------------
                    Distance matrix (angstroms):
                    1          2          3          4          5
     1  C    0.000000
     2  C    1.525853   0.000000
     3  C    2.523102   1.532197   0.000000
     4  N    3.811282   2.463931   1.453779   0.000000
     5  C    4.974522   3.757324   2.458814   1.364495   0.000000
     6  O    5.160417   4.223490   2.720170   2.228301   1.220359
     7  N    6.169559   4.821843   3.711453   2.367205   1.371977
     8  C    7.488411   6.204092   4.980460   3.740687   2.523240
     9  C    7.925396   6.815509   5.415959   4.437152   3.078426
    10  C    8.610695   7.234940   6.155346   4.802105   3.752866
    11  C    9.899935   8.563946   7.408814   6.109853   4.960730
    12  C   10.217029   8.999403   7.694049   6.545861   5.255869
    13  C    9.311651   8.213354   6.808218   5.827281   4.472336
    14  H    1.110337   2.167257   3.483675   4.623605   5.879019
    15  H    1.110929   2.177408   2.780591   4.124250   5.153916
    16  H    1.110898   2.177179   2.781638   4.126132   5.158866
    17  H    2.159438   1.111863   2.172298   2.718443   4.019719
    18  H    2.159000   1.111724   2.173233   2.721410   4.025941
    19  H    2.759234   2.169302   1.112456   2.101178   2.763935
    20  H    2.756215   2.167560   1.112495   2.100740   2.759557
    21  H    4.108650   2.596103   2.241063   1.140998   2.168008
    22  H    6.278541   4.811472   4.015527   2.562248   2.142442
    23  H    7.390468   6.432531   4.949001   4.221472   2.886996
    24  H    8.611911   7.159282   6.268795   4.838535   4.034804
    25  H   10.755269   9.370112   8.298903   6.946460   5.881597
    26  S   11.966608  10.778056   9.445591   8.331044   7.025603
    27  O   12.759702  11.484288  10.247974   9.027715   7.800046
    28  O   12.567556  11.369241  10.062338   8.937200   7.661776
    29  H    9.780497   8.798972   7.331017   6.504892   5.141799
    30  C   12.807751  11.746978  10.327745   9.369404   8.020370
    31  F   14.163580  13.078045  11.673275  10.678537   9.336313
    32  F   12.593078  11.566564  10.158976   9.247073   7.927810
    33  F   12.539145  11.584221  10.109403   9.284223   7.919792
    34  O    5.304305   3.851161   4.121590   3.202346   4.034114
    35  O    7.101024   5.578998   5.301113   3.956976   4.053559
    36  C    6.618628   5.137998   5.201911   4.052017   4.529878
    37  C    7.679187   6.276495   6.555337   5.501522   6.031426
    38  C    9.078900   7.630330   7.725016   6.523844   6.793482
    39  H    7.707659   6.367031   6.813733   5.864255   6.518429
    40  H    7.635727   6.316815   6.714489   5.788095   6.413806
    41  H    9.344333   7.864076   7.856622   6.587661   6.743539
    42  H    9.844309   8.443935   8.664091   7.524132   7.864502
    43  H    9.283147   7.821681   7.768775   6.518240   6.640768
                    6          7          8          9         10
     6  O    0.000000
     7  N    2.260004   0.000000
     8  C    2.881642   1.443320   0.000000
     9  C    2.837359   2.530939   1.418028   0.000000
    10  C    4.271511   2.447252   1.410505   2.418642   0.000000
    11  C    5.263676   3.744258   2.448094   2.794008   1.397268
    12  C    5.234282   4.276082   2.834289   2.426219   2.422187
    13  C    4.186682   3.797213   2.448638   1.398189   2.786425
    14  H    6.182240   6.986899   8.357758   8.895415   9.401679
    15  H    5.183917   6.400066   7.647774   7.979712   8.814741
    16  H    5.191862   6.407201   7.657874   7.969387   8.845783
    17  H    4.630209   4.923345   6.324619   7.061887   7.237194
    18  H    4.638616   4.932750   6.336835   7.049980   7.275141
    19  H    2.726746   4.053477   5.191816   5.438706   6.444001
    20  H    2.717514   4.046375   5.181515   5.459012   6.405450
    21  H    3.253986   2.616460   4.058330   5.031720   4.845736
    22  H    3.256210   1.146437   2.206358   3.521908   2.626827
    23  H    2.238792   2.845099   2.203293   1.073605   3.421163
    24  H    4.799413   2.665219   2.172183   3.411717   1.081080
    25  H    6.282241   4.593265   3.420333   3.876284   2.146269
    26  S    6.907539   6.071325   4.629494   4.074539   4.084607
    27  O    7.863018   6.692581   5.309935   5.091836   4.416103
    28  O    7.575306   6.690813   5.295117   4.790119   4.711107
    29  H    4.624226   4.674279   3.424048   2.147908   3.869111
    30  C    7.665540   7.268662   5.852318   4.977684   5.579446
    31  F    9.021398   8.518717   7.084597   6.291461   6.655624
    32  F    7.549436   7.241502   5.898131   5.050348   5.696862
    33  F    7.394190   7.348679   5.987977   4.877217   5.995966
    34  O    5.210237   3.929805   5.209431   6.443784   5.516582
    35  O    5.237928   3.208928   4.008064   5.401439   3.806398
    36  C    5.745221   4.000536   5.025463   6.379105   4.986177
    37  C    7.244158   5.460365   6.379078   7.756819   6.140842
    38  C    7.984249   5.953455   6.574170   7.966946   6.012766
    39  H    7.734686   6.040343   7.026323   8.411677   6.816592
    40  H    7.593624   5.968036   6.938930   8.262112   6.798381
    41  H    7.920440   5.799763   6.305206   7.710938   5.616001
    42  H    9.061040   7.057202   7.678926   9.068161   7.081546
    43  H    7.780870   5.723106   6.206554   7.546046   5.593519
                   11         12         13         14         15
    11  C    0.000000
    12  C    1.396463   0.000000
    13  C    2.411138   1.394980   0.000000
    14  H   10.729329  11.134242  10.289850   0.000000
    15  H   10.058764  10.296582   9.337910   1.804682   0.000000
    16  H   10.090583  10.312806   9.333857   1.804780   1.810873
    17  H    8.588533   9.126632   8.441566   2.484778   2.504316
    18  H    8.625863   9.144826   8.436826   2.484854   3.089185
    19  H    7.625813   7.783454   6.799392   3.772390   3.128272
    20  H    7.588022   7.766759   6.810091   3.768745   2.547777
    21  H    6.227090   6.885481   6.371554   4.696352   4.563522
    22  H    4.023471   4.860562   4.653972   6.953267   6.614418
    23  H    3.864781   3.363533   2.097253   8.416222   7.385160
    24  H    2.129195   3.385990   3.866925   9.303681   8.883651
    25  H    1.082333   2.156889   3.396307  11.535347  10.943060
    26  S    2.783981   1.795279   2.764381  12.902701  12.013034
    27  O    3.036336   2.694038   3.949488  13.636159  12.814451
    28  O    3.461131   2.687672   3.563025  13.489592  12.723684
    29  H    3.394111   2.151417   1.082706  10.804490   9.744728
    30  C    4.397937   3.201123   3.603138  13.803862  12.727305
    31  F    5.364429   4.315107   4.903879  15.151164  14.098668
    32  F    4.645835   3.557088   3.825728  13.585614  12.407344
    33  F    4.978153   3.619463   3.553518  13.575465  12.455068
    34  O    6.887066   7.844708   7.646893   5.514168   5.946323
    35  O    5.061750   6.210400   6.344022   7.507104   7.619127
    36  C    6.271775   7.384874   7.423123   6.861648   7.229636
    37  C    7.317241   8.528441   8.712971   7.750050   8.356607
    38  C    6.987021   8.297034   8.719809   9.218154   9.720679
    39  H    8.011197   9.232127   9.401248   7.669614   8.328253
    40  H    7.979473   9.136513   9.253709   7.632269   8.427818
    41  H    6.524810   7.878585   8.389891   9.538574   9.878009
    42  H    8.000031   9.327264   9.796247   9.886099  10.523042
    43  H    6.485641   7.765657   8.223002   9.506763   9.960773
                   16         17         18         19         20
    16  H    0.000000
    17  H    3.089366   0.000000
    18  H    2.503075   1.808592   0.000000
    19  H    2.552264   3.090452   2.505867   0.000000
    20  H    3.127249   2.503265   3.089839   1.811439   0.000000
    21  H    4.563861   2.567603   2.568961   2.964369   2.965299
    22  H    6.622705   4.760749   4.772729   4.500173   4.491089
    23  H    7.350778   6.785432   6.747599   4.846417   4.903896
    24  H    8.928834   7.057260   7.114414   6.664363   6.607228
    25  H   10.986489   9.329974   9.381055   8.562333   8.510637
    26  S   12.031525  10.908933  10.929143   9.491558   9.472961
    27  O   12.927698  11.489723  11.615760  10.421761  10.285507
    28  O   12.536483  11.595993  11.390439   9.987699  10.226465
    29  H    9.727792   9.093679   9.075144   7.221895   7.249971
    30  C   12.839362  11.901208  12.020521  10.331230  10.196676
    31  F   14.192369  13.220116  13.319610  11.673164  11.564039
    32  F   12.711100  11.629058  11.951891  10.270033   9.896565
    33  F   12.461727  11.855913  11.862470   9.977245   9.974107
    34  O    5.833115   3.565675   3.375190   4.766352   4.904290
    35  O    7.535198   5.356593   5.237680   5.845527   5.954951
    36  C    7.108401   4.849486   4.668336   5.793539   5.942316
    37  C    8.188940   5.926495   5.689362   7.131846   7.323853
    38  C    9.556949   7.294952   7.076882   8.265241   8.454671
    39  H    8.338666   5.847123   5.863414   7.509463   7.497465
    40  H    8.048923   6.098953   5.565844   7.169439   7.592164
    41  H    9.893229   7.431681   7.453085   8.484179   8.467325
    42  H   10.334725   8.079901   7.834746   9.203846   9.415111
    43  H    9.647511   7.630688   7.218703   8.181861   8.550102
                   21         22         23         24         25
    21  H    0.000000
    22  H    2.280091   0.000000
    23  H    5.020736   3.965507   0.000000
    24  H    4.626363   2.355729   4.346295   0.000000
    25  H    6.932298   4.664732   4.947055   2.433270   0.000000
    26  S    8.679451   6.622953   4.860486   4.913134   2.930796
    27  O    9.218419   7.034233   6.000964   4.987151   2.647505
    28  O    9.247700   7.183974   5.540762   5.458146   3.464945
    29  H    7.167428   5.616973   2.391488   4.949621   4.294905
    30  C    9.868340   7.974586   5.497489   6.487919   4.641633
    31  F   11.129379   9.154471   6.848465   7.480975   5.378248
    32  F    9.765069   7.959688   5.516441   6.581306   4.936452
    33  F    9.905104   8.185226   5.165903   6.999266   5.430064
    34  O    2.073006   3.024554   6.675805   4.907580   7.331331
    35  O    3.102836   2.077902   5.964677   2.973864   5.320702
    36  C    2.996490   2.903656   6.816373   4.189978   6.545558
    37  C    4.410451   4.343419   8.255426   5.224466   7.414933
    38  C    5.511737   4.834322   8.627808   4.996581   6.867346
    39  H    4.732769   4.924184   8.881084   5.885748   8.100515
    40  H    4.720723   4.918036   8.691246   5.948419   8.117063
    41  H    5.615740   4.686729   8.438713   4.549852   6.329556
    42  H    6.476791   5.935872   9.732485   6.053901   7.806028
    43  H    5.604155   4.679324   8.236879   4.630896   6.351138
                   26         27         28         29         30
    26  S    0.000000
    27  O    1.536850   0.000000
    28  O    1.536067   2.337482   0.000000
    29  H    2.890728   4.281149   3.637383   0.000000
    30  C    1.816568   2.703052   2.715594   3.188537   0.000000
    31  F    2.625485   2.971184   3.049929   4.520355   1.381975
    32  F    2.623235   3.165958   3.897505   3.457042   1.381590
    33  F    2.625647   3.882795   3.115222   2.790241   1.381631
    34  O    9.577845   9.869519  10.016144   8.573161  10.989791
    35  O    7.826923   7.937410   8.211496   7.376551   9.384138
    36  C    9.029403   9.161393   9.399170   8.426022  10.563200
    37  C   10.076413  10.057834  10.353156   9.742042  11.692915
    38  C    9.675536   9.470120   9.862922   9.782508  11.375922
    39  H   10.791983  10.715396  11.177294  10.431499  12.361495
    40  H   10.693656  10.762779  10.854607  10.250790  12.326358
    41  H    9.206419   8.880792   9.516821   9.469182  10.874827
    42  H   10.646194  10.367883  10.780524  10.859817  12.369097
    43  H    9.090505   8.938486   9.134178   9.268303  10.834605
                   31         32         33         34         35
    31  F    0.000000
    32  F    2.253194   0.000000
    33  F    2.253372   2.258909   0.000000
    34  O   12.143937  10.963346  11.187646   0.000000
    35  O   10.422824   9.447892   9.749710   2.228122   0.000000
    36  C   11.625772  10.601563  10.883623   1.349118   1.225265
    37  C   12.672319  11.772668  12.090066   2.460709   2.383116
    38  C   12.227975  11.525287  11.895448   3.782428   2.765485
    39  H   13.356264  12.336762  12.802169   2.748306   3.093871
    40  H   13.311642  12.487192  12.637428   2.744834   3.092951
    41  H   11.702126  10.935810  11.494247   4.082675   2.743855
    42  H   13.172374  12.535696  12.918732   4.614497   3.861146
    43  H   11.651035  11.105777  11.309405   4.079101   2.742241
                   36         37         38         39         40
    36  C    0.000000
    37  C    1.505449   0.000000
    38  C    2.532799   1.528427   0.000000
    39  H    2.138182   1.110879   2.160504   0.000000
    40  H    2.137163   1.110969   2.159388   1.804872   0.000000
    41  H    2.805378   2.179607   1.110945   2.505736   3.089411
    42  H    3.481379   2.168966   1.110440   2.484803   2.483062
    43  H    2.803759   2.179472   1.111052   3.090125   2.504247
                   41         42         43
    41  H    0.000000
    42  H    1.804505   0.000000
    43  H    1.812695   1.804244   0.000000
 Stoichiometry    C14H18F3N2O5S(1-)
 Framework group  C1[X(C14H18F3N2O5S)]
 Deg. of freedom   123
 Full point group                 C1      NOp   1
 Largest Abelian subgroup         C1      NOp   1
 Largest concise Abelian subgroup C1      NOp   1
                         Standard orientation:                         
 ---------------------------------------------------------------------
 Center     Atomic      Atomic             Coordinates (Angstroms)
 Number     Number       Type             X           Y           Z
 ---------------------------------------------------------------------
      1          6           0       -6.778899   -3.760462    0.020071
      2          6           0       -5.956615   -2.477998    0.105885
      3          6           0       -4.459035   -2.769856   -0.034470
      4          7           0       -3.675530   -1.548209    0.050208
      5          6           0       -2.314237   -1.567540   -0.041214
      6          8           0       -1.746889   -2.636930   -0.195474
      7          7           0       -1.608331   -0.394803    0.052085
      8          6           0       -0.176324   -0.227612   -0.015546
      9          6           0        0.740048   -1.274302   -0.290336
     10          6           0        0.352548    1.061708    0.202342
     11          6           0        1.728404    1.300786    0.155257
     12          6           0        2.614730    0.255698   -0.113678
     13          6           0        2.115468   -1.027488   -0.337600
     14          1           0       -7.857432   -3.518904    0.126208
     15          1           0       -6.489399   -4.460032    0.833062
     16          1           0       -6.620066   -4.255810   -0.961507
     17          1           0       -6.148880   -1.992032    1.087267
     18          1           0       -6.278839   -1.789381   -0.705231
     19          1           0       -4.271917   -3.257217   -1.016827
     20          1           0       -4.146031   -3.461617    0.778635
     21          1           0       -4.215778   -0.554321    0.199185
     22          1           0       -2.225560    0.558206    0.210579
     23          1           0        0.446426   -2.289453   -0.479762
     24          1           0       -0.298665    1.897675    0.416385
     25          1           0        2.099065    2.302717    0.329010
     26         16           0        4.385880    0.541589   -0.179388
     27          8           0        4.683097    1.812530    0.631955
     28          8           0        4.711701    1.070216   -1.584342
     29          1           0        2.794830   -1.843154   -0.550691
     30          6           0        5.651501   -0.684026    0.263321
     31          9           0        6.904610   -0.107571    0.178052
     32          9           0        5.437902   -1.119710    1.556900
     33          9           0        5.583166   -1.755977   -0.605675
     34          8           0       -5.158472    1.289549    0.105250
     35          8           0       -3.216347    2.381647    0.105298
     36          6           0       -4.440112    2.430969    0.070071
     37          6           0       -5.165613    3.747263   -0.015924
     38          6           0       -4.225278    4.951598   -0.053816
     39          1           0       -5.835685    3.842464    0.864981
     40          1           0       -5.787005    3.749849   -0.936856
     41          1           0       -3.607165    4.988064    0.868575
     42          1           0       -4.821316    5.886244   -0.119022
     43          1           0       -3.558990    4.893171   -0.940994
 ---------------------------------------------------------------------
 Rotational constants (GHZ):      0.2927259      0.0685415      0.0569883
 General basis read from cards:  (6D, 7F)
 There are   515 symmetry adapted cartesian basis functions of A   symmetry.
 There are   515 symmetry adapted basis functions of A   symmetry.
   515 basis functions,   896 primitive gaussians,   515 cartesian basis functions
   100 alpha electrons      100 beta electrons
       nuclear repulsion energy      2341.9638683592 Hartrees.
 NAtoms=   43 NActive=   43 NUniq=   43 SFac= 1.00D+00 NAtFMM=   60 NAOKFM=F Big=F
 Integral buffers will be    131072 words long.
 Raffenetti 2 integral format.
 Two-electron integral symmetry is turned on.
 One-electron integrals computed using PRISM.
 NBasis=   515 RedAO= T EigKep=  1.87D-06  NBF=   515
 NBsUse=   513 1.00D-06 EigRej=  9.57D-07 NBFU=   513
 ExpMin= 4.05D-02 ExpMax= 2.19D+04 ExpMxC= 3.30D+03 IAcc=3 IRadAn=         5 AccDes= 0.00D+00
 Harris functional with IExCor= 1009 and IRadAn=       5 diagonalized for initial guess.
 HarFok:  IExCor= 1009 AccDes= 0.00D+00 IRadAn=         5 IDoV= 1 UseB2=F ITyADJ=14
 ICtDFT=  3500011 ScaDFX=  1.000000  1.000000  1.000000  1.000000
 FoFCou: FMM=F IPFlag=           0 FMFlag=      100000 FMFlg1=           0
         NFxFlg=           0 DoJE=T BraDBF=F KetDBF=T FulRan=T
         wScrn=  0.000000 ICntrl=     500 IOpCl=  0 I1Cent=   200000004 NGrid=           0
         NMat0=    1 NMatS0=      1 NMatT0=    0 NMatD0=    1 NMtDS0=    0 NMtDT0=    0
 Petite list used in FoFCou.
 Requested convergence on RMS density matrix=1.00D-08 within 128 cycles.
 Requested convergence on MAX density matrix=1.00D-06.
 Requested convergence on             energy=1.00D-06.
 No special actions if energy rises.
 SCF Done:  E(RM062X) =  -1727.12259045     A.U. after   18 cycles
            NFock= 18  Conv=0.47D-08     -V/T= 2.0079

 **********************************************************************

            Population analysis using the SCF density.

 **********************************************************************

 Orbital symmetries:
       Occupied  (A) (A) (A) (A) (A) (A) (A) (A) (A) (A) (A) (A)
                 (A) (A) (A) (A) (A) (A) (A) (A) (A) (A) (A) (A)
                 (A) (A) (A) (A) (A) (A) (A) (A) (A) (A) (A) (A)
                 (A) (A) (A) (A) (A) (A) (A) (A) (A) (A) (A) (A)
                 (A) (A) (A) (A) (A) (A) (A) (A) (A) (A) (A) (A)
                 (A) (A) (A) (A) (A) (A) (A) (A) (A) (A) (A) (A)
                 (A) (A) (A) (A) (A) (A) (A) (A) (A) (A) (A) (A)
                 (A) (A) (A) (A) (A) (A) (A) (A) (A) (A) (A) (A)
                 (A) (A) (A) (A)
       Virtual   (A) (A) (A) (A) (A) (A) (A) (A) (A) (A) (A) (A)
                 (A) (A) (A) (A) (A) (A) (A) (A) (A) (A) (A) (A)
                 (A) (A) (A) (A) (A) (A) (A) (A) (A) (A) (A) (A)
                 (A) (A) (A) (A) (A) (A) (A) (A) (A) (A) (A) (A)
                 (A) (A) (A) (A) (A) (A) (A) (A) (A) (A) (A) (A)
                 (A) (A) (A) (A) (A) (A) (A) (A) (A) (A) (A) (A)
                 (A) (A) (A) (A) (A) (A) (A) (A) (A) (A) (A) (A)
                 (A) (A) (A) (A) (A) (A) (A) (A) (A) (A) (A) (A)
                 (A) (A) (A) (A) (A) (A) (A) (A) (A) (A) (A) (A)
                 (A) (A) (A) (A) (A) (A) (A) (A) (A) (A) (A) (A)
                 (A) (A) (A) (A) (A) (A) (A) (A) (A) (A) (A) (A)
                 (A) (A) (A) (A) (A) (A) (A) (A) (A) (A) (A) (A)
                 (A) (A) (A) (A) (A) (A) (A) (A) (A) (A) (A) (A)
                 (A) (A) (A) (A) (A) (A) (A) (A) (A) (A) (A) (A)
                 (A) (A) (A) (A) (A) (A) (A) (A) (A) (A) (A) (A)
                 (A) (A) (A) (A) (A) (A) (A) (A) (A) (A) (A) (A)
                 (A) (A) (A) (A) (A) (A) (A) (A) (A) (A) (A) (A)
                 (A) (A) (A) (A) (A) (A) (A) (A) (A) (A) (A) (A)
                 (A) (A) (A) (A) (A) (A) (A) (A) (A) (A) (A) (A)
                 (A) (A) (A) (A) (A) (A) (A) (A) (A) (A) (A) (A)
                 (A) (A) (A) (A) (A) (A) (A) (A) (A) (A) (A) (A)
                 (A) (A) (A) (A) (A) (A) (A) (A) (A) (A) (A) (A)
                 (A) (A) (A) (A) (A) (A) (A) (A) (A) (A) (A) (A)
                 (A) (A) (A) (A) (A) (A) (A) (A) (A) (A) (A) (A)
                 (A) (A) (A) (A) (A) (A) (A) (A) (A) (A) (A) (A)
                 (A) (A) (A) (A) (A) (A) (A) (A) (A) (A) (A) (A)
                 (A) (A) (A) (A) (A) (A) (A) (A) (A) (A) (A) (A)
                 (A) (A) (A) (A) (A) (A) (A) (A) (A) (A) (A) (A)
                 (A) (A) (A) (A) (A) (A) (A) (A) (A) (A) (A) (A)
                 (A) (A) (A) (A) (A) (A) (A) (A) (A) (A) (A) (A)
                 (A) (A) (A) (A) (A) (A) (A) (A) (A) (A) (A) (A)
                 (A) (A) (A) (A) (A) (A) (A) (A) (A) (A) (A) (A)
                 (A) (A) (A) (A) (A) (A) (A) (A) (A) (A) (A) (A)
                 (A) (A) (A) (A) (A) (A) (A) (A) (A) (A) (A) (A)
                 (A) (A) (A) (A) (A)
 The electronic state is 1-A.
 Alpha  occ. eigenvalues --  -90.09057 -25.28288 -25.28126 -25.28062 -19.56167
 Alpha  occ. eigenvalues --  -19.56119 -19.49828 -19.47200 -19.44278 -14.70773
 Alpha  occ. eigenvalues --  -14.67195 -10.81205 -10.57415 -10.54787 -10.53943
 Alpha  occ. eigenvalues --  -10.51130 -10.51118 -10.51064 -10.49244 -10.48722
 Alpha  occ. eigenvalues --  -10.48662 -10.46597 -10.45994 -10.43797 -10.43715
 Alpha  occ. eigenvalues --   -8.40607  -6.32773  -6.32631  -6.32612  -1.41821
 Alpha  occ. eigenvalues --   -1.34230  -1.33871  -1.12714  -1.07167  -1.02262
 Alpha  occ. eigenvalues --   -0.99619  -0.94173  -0.90988  -0.89374  -0.88778
 Alpha  occ. eigenvalues --   -0.83673  -0.79809  -0.78784  -0.78186  -0.75446
 Alpha  occ. eigenvalues --   -0.72106  -0.68540  -0.65584  -0.65395  -0.64764
 Alpha  occ. eigenvalues --   -0.63994  -0.61214  -0.59439  -0.58277  -0.55966
 Alpha  occ. eigenvalues --   -0.53858  -0.53751  -0.52052  -0.51442  -0.50598
 Alpha  occ. eigenvalues --   -0.50289  -0.49611  -0.48629  -0.47183  -0.46335
 Alpha  occ. eigenvalues --   -0.46166  -0.45276  -0.45040  -0.43795  -0.43504
 Alpha  occ. eigenvalues --   -0.42674  -0.42193  -0.41874  -0.40194  -0.39920
 Alpha  occ. eigenvalues --   -0.38876  -0.38576  -0.36689  -0.36610  -0.36001
 Alpha  occ. eigenvalues --   -0.34842  -0.33492  -0.33218  -0.32631  -0.32298
 Alpha  occ. eigenvalues --   -0.31481  -0.30949  -0.30465  -0.30173  -0.30034
 Alpha  occ. eigenvalues --   -0.28884  -0.28590  -0.26302  -0.24785  -0.23557
 Alpha  occ. eigenvalues --   -0.21038  -0.19317  -0.18798  -0.17223  -0.16375
 Alpha virt. eigenvalues --    0.03256   0.06028   0.07830   0.08280   0.09817
 Alpha virt. eigenvalues --    0.10096   0.10352   0.10893   0.11477   0.12123
 Alpha virt. eigenvalues --    0.12397   0.12642   0.12852   0.13250   0.13650
 Alpha virt. eigenvalues --    0.14021   0.14293   0.14431   0.15034   0.15183
 Alpha virt. eigenvalues --    0.15517   0.15698   0.16348   0.16487   0.17316
 Alpha virt. eigenvalues --    0.17345   0.17795   0.18006   0.18164   0.18474
 Alpha virt. eigenvalues --    0.19173   0.19322   0.19619   0.20468   0.20514
 Alpha virt. eigenvalues --    0.20832   0.21097   0.21378   0.21715   0.21762
 Alpha virt. eigenvalues --    0.22320   0.22641   0.22932   0.23221   0.23872
 Alpha virt. eigenvalues --    0.23957   0.24467   0.24918   0.25054   0.25534
 Alpha virt. eigenvalues --    0.25635   0.26216   0.26668   0.27240   0.27369
 Alpha virt. eigenvalues --    0.27797   0.28273   0.29042   0.29488   0.29528
 Alpha virt. eigenvalues --    0.29850   0.30324   0.30592   0.31058   0.31299
 Alpha virt. eigenvalues --    0.31520   0.31917   0.32353   0.32840   0.33342
 Alpha virt. eigenvalues --    0.33531   0.33717   0.34052   0.34249   0.34580
 Alpha virt. eigenvalues --    0.34788   0.35070   0.35497   0.35709   0.36288
 Alpha virt. eigenvalues --    0.36635   0.36949   0.37220   0.37828   0.38201
 Alpha virt. eigenvalues --    0.38316   0.38702   0.39117   0.39318   0.39385
 Alpha virt. eigenvalues --    0.39805   0.39912   0.40651   0.40785   0.41184
 Alpha virt. eigenvalues --    0.41514   0.41844   0.41970   0.42229   0.42680
 Alpha virt. eigenvalues --    0.42803   0.43044   0.43587   0.43889   0.44455
 Alpha virt. eigenvalues --    0.44510   0.44728   0.44932   0.45227   0.45597
 Alpha virt. eigenvalues --    0.46445   0.46513   0.46605   0.47029   0.47585
 Alpha virt. eigenvalues --    0.47652   0.48051   0.48449   0.49143   0.49478
 Alpha virt. eigenvalues --    0.49729   0.50505   0.51387   0.51952   0.52547
 Alpha virt. eigenvalues --    0.53337   0.53978   0.54646   0.54914   0.55373
 Alpha virt. eigenvalues --    0.55964   0.56864   0.57063   0.58224   0.60365
 Alpha virt. eigenvalues --    0.60933   0.61516   0.63052   0.64202   0.65235
 Alpha virt. eigenvalues --    0.65612   0.66299   0.67413   0.69558   0.70771
 Alpha virt. eigenvalues --    0.71370   0.72398   0.74271   0.74730   0.77932
 Alpha virt. eigenvalues --    0.78729   0.78999   0.80590   0.80939   0.81069
 Alpha virt. eigenvalues --    0.82817   0.83287   0.84079   0.84435   0.85289
 Alpha virt. eigenvalues --    0.85626   0.85782   0.86422   0.87695   0.87975
 Alpha virt. eigenvalues --    0.89239   0.89689   0.90021   0.90605   0.91216
 Alpha virt. eigenvalues --    0.92233   0.93708   0.93947   0.94477   0.95388
 Alpha virt. eigenvalues --    0.97587   0.97735   0.98008   0.99229   0.99670
 Alpha virt. eigenvalues --    1.01273   1.02023   1.03696   1.05220   1.05580
 Alpha virt. eigenvalues --    1.05897   1.06730   1.07474   1.08467   1.09119
 Alpha virt. eigenvalues --    1.09640   1.10279   1.11547   1.12150   1.13585
 Alpha virt. eigenvalues --    1.14393   1.16127   1.16360   1.16849   1.17204
 Alpha virt. eigenvalues --    1.18430   1.19147   1.20663   1.20759   1.22013
 Alpha virt. eigenvalues --    1.22523   1.22979   1.24533   1.24984   1.25422
 Alpha virt. eigenvalues --    1.26421   1.28089   1.28756   1.28781   1.30594
 Alpha virt. eigenvalues --    1.31078   1.32221   1.32829   1.34087   1.35627
 Alpha virt. eigenvalues --    1.36805   1.37501   1.39990   1.40913   1.41702
 Alpha virt. eigenvalues --    1.43310   1.43812   1.44967   1.46215   1.46427
 Alpha virt. eigenvalues --    1.46970   1.47237   1.48022   1.49243   1.50216
 Alpha virt. eigenvalues --    1.50805   1.51273   1.51797   1.52886   1.53340
 Alpha virt. eigenvalues --    1.54655   1.55286   1.55761   1.56607   1.57324
 Alpha virt. eigenvalues --    1.58193   1.58602   1.58912   1.59217   1.59682
 Alpha virt. eigenvalues --    1.61130   1.62327   1.64664   1.66278   1.66670
 Alpha virt. eigenvalues --    1.67013   1.67587   1.68910   1.70542   1.71549
 Alpha virt. eigenvalues --    1.71875   1.72946   1.73537   1.74850   1.74975
 Alpha virt. eigenvalues --    1.77478   1.77909   1.78387   1.78842   1.79233
 Alpha virt. eigenvalues --    1.81211   1.82113   1.82788   1.83927   1.86719
 Alpha virt. eigenvalues --    1.87886   1.90267   1.91088   1.91939   1.92493
 Alpha virt. eigenvalues --    1.92712   1.93277   1.94513   1.95289   1.96494
 Alpha virt. eigenvalues --    1.97257   1.97413   1.98063   1.99153   1.99891
 Alpha virt. eigenvalues --    2.00349   2.01019   2.01557   2.01656   2.02692
 Alpha virt. eigenvalues --    2.03187   2.03912   2.04605   2.05044   2.06209
 Alpha virt. eigenvalues --    2.06423   2.06669   2.07151   2.07660   2.08399
 Alpha virt. eigenvalues --    2.08589   2.08772   2.09110   2.10269   2.12470
 Alpha virt. eigenvalues --    2.13028   2.14250   2.14887   2.15020   2.15447
 Alpha virt. eigenvalues --    2.16036   2.16873   2.18273   2.19621   2.20989
 Alpha virt. eigenvalues --    2.22291   2.22639   2.23256   2.23417   2.24207
 Alpha virt. eigenvalues --    2.24865   2.25795   2.27043   2.28048   2.29339
 Alpha virt. eigenvalues --    2.30298   2.31076   2.32689   2.33885   2.34788
 Alpha virt. eigenvalues --    2.35000   2.36126   2.37157   2.38310   2.39689
 Alpha virt. eigenvalues --    2.40406   2.41202   2.42459   2.42664   2.45763
 Alpha virt. eigenvalues --    2.46445   2.47633   2.47934   2.49009   2.49916
 Alpha virt. eigenvalues --    2.51737   2.57937   2.66143   2.66451   2.67631
 Alpha virt. eigenvalues --    2.68030   2.68882   2.72876   2.73049   2.74393
 Alpha virt. eigenvalues --    2.75460   2.76310   2.80004   2.81217   2.82410
 Alpha virt. eigenvalues --    2.84647   2.84888   2.85617   2.87802   2.88358
 Alpha virt. eigenvalues --    2.89536   2.91178   2.93123   2.96747   2.99721
 Alpha virt. eigenvalues --    3.00674   3.08803   3.14232   3.17380   3.20801
 Alpha virt. eigenvalues --    3.21604   3.22725   3.23461   3.29439   3.32330
 Alpha virt. eigenvalues --    3.37547   3.40947   3.48014   4.09231   4.26987
 Alpha virt. eigenvalues --    4.29787   4.33708   4.35195   4.36853   4.38873
 Alpha virt. eigenvalues --    4.45959   4.46778   4.49088   4.49358   4.51889
 Alpha virt. eigenvalues --    4.53452   4.55924   4.56674   4.58801   4.62104
 Alpha virt. eigenvalues --    4.68651   4.74629   4.81658   4.83259   4.87866
 Alpha virt. eigenvalues --    5.75392   5.85889   6.39546
          Condensed to atoms (all electrons):
               1          2          3          4          5          6
     1  C    5.853043  -0.235133   0.052559  -0.017084  -0.071725  -0.001203
     2  C   -0.235133   6.433407  -0.536408  -0.065535   0.187580   0.025661
     3  C    0.052559  -0.536408   7.331852   0.354835  -0.841178  -0.134899
     4  N   -0.017084  -0.065535   0.354835   7.740740   0.442117  -0.194886
     5  C   -0.071725   0.187580  -0.841178   0.442117   7.010178   0.565734
     6  O   -0.001203   0.025661  -0.134899  -0.194886   0.565734   8.349607
     7  N   -0.004177   0.016236  -0.209797  -0.380634   0.235872  -0.080006
     8  C   -0.007981   0.018810  -0.309219  -0.212845  -0.286272  -0.256295
     9  C   -0.004911  -0.021528  -0.214354  -0.010026  -0.625733   0.319687
    10  C   -0.000173   0.009579  -0.004005  -0.030078  -0.179391  -0.058269
    11  C    0.000045   0.002374   0.009628  -0.028656   0.180577  -0.019421
    12  C   -0.000364  -0.001100  -0.040572   0.013163  -0.690220   0.007448
    13  C   -0.000622  -0.003490  -0.057274   0.026457  -0.454687   0.097289
    14  H    0.455584  -0.134107   0.030649   0.000269  -0.001925   0.000004
    15  H    0.423770  -0.069517  -0.010706  -0.000145   0.000057  -0.000036
    16  H    0.415684  -0.065622  -0.004322   0.000009  -0.001930  -0.000045
    17  H   -0.043740   0.418809  -0.051706   0.004152  -0.014078  -0.000217
    18  H   -0.035141   0.425535  -0.074322   0.004228  -0.003291  -0.000144
    19  H   -0.010063  -0.056673   0.452916  -0.058612  -0.023134   0.001318
    20  H   -0.006251  -0.057128   0.450081  -0.059568  -0.022853   0.001052
    21  H    0.002289  -0.002278  -0.049565   0.167749   0.021618   0.004057
    22  H    0.000169   0.000510   0.004447   0.031121  -0.030673   0.003835
    23  H    0.000019  -0.000039   0.003717   0.000565   0.034575  -0.005985
    24  H   -0.000001   0.000024  -0.000334   0.000432  -0.005002   0.000056
    25  H    0.000000   0.000000   0.000030   0.000009   0.003990   0.000000
    26  S   -0.000004  -0.000064  -0.000463   0.001653  -0.038848  -0.001249
    27  O   -0.000000  -0.000000  -0.000004   0.000009  -0.000974  -0.000009
    28  O   -0.000000  -0.000000  -0.000008   0.000006  -0.001423  -0.000012
    29  H   -0.000000   0.000004  -0.000083  -0.000017  -0.005541   0.000464
    30  C   -0.000000   0.000006  -0.000082  -0.000131  -0.001208   0.000214
    31  F    0.000000   0.000000   0.000000  -0.000000   0.000022   0.000000
    32  F    0.000000  -0.000000   0.000000   0.000000   0.000005  -0.000002
    33  F   -0.000000  -0.000000  -0.000001   0.000000  -0.000216  -0.000002
    34  O    0.007462   0.012112  -0.008820  -0.033115  -0.002224  -0.000349
    35  O   -0.000150  -0.000737   0.006272   0.009328   0.017191  -0.000108
    36  C   -0.003120  -0.002643   0.001183  -0.004597  -0.005047  -0.000330
    37  C    0.002804   0.000435   0.016871  -0.011442  -0.014794  -0.000569
    38  C   -0.000341  -0.000262  -0.001665   0.002204   0.002658   0.000039
    39  H    0.000005  -0.000021   0.000070  -0.000031  -0.000117  -0.000000
    40  H    0.000006  -0.000003   0.000035  -0.000054  -0.000098  -0.000000
    41  H    0.000000   0.000006  -0.000008  -0.000003  -0.000042  -0.000000
    42  H    0.000000   0.000003  -0.000002  -0.000002   0.000012   0.000000
    43  H    0.000000   0.000005  -0.000000   0.000000   0.000005  -0.000000
               7          8          9         10         11         12
     1  C   -0.004177  -0.007981  -0.004911  -0.000173   0.000045  -0.000364
     2  C    0.016236   0.018810  -0.021528   0.009579   0.002374  -0.001100
     3  C   -0.209797  -0.309219  -0.214354  -0.004005   0.009628  -0.040572
     4  N   -0.380634  -0.212845  -0.010026  -0.030078  -0.028656   0.013163
     5  C    0.235872  -0.286272  -0.625733  -0.179391   0.180577  -0.690220
     6  O   -0.080006  -0.256295   0.319687  -0.058269  -0.019421   0.007448
     7  N    7.843464   0.087413  -0.114578  -0.012286   0.003767  -0.016117
     8  C    0.087413  13.797877   0.138322   0.325936   0.276850  -2.953629
     9  C   -0.114578   0.138322  12.171694  -3.024057  -1.972865  -1.697564
    10  C   -0.012286   0.325936  -3.024057  12.339711  -1.310661  -1.166498
    11  C    0.003767   0.276850  -1.972865  -1.310661  13.554867  -0.845546
    12  C   -0.016117  -2.953629  -1.697564  -1.166498  -0.845546  13.920786
    13  C    0.103540  -4.103509   1.641231  -1.495005  -3.660928   1.530669
    14  H    0.000008  -0.000028  -0.000003  -0.000001  -0.000000  -0.000000
    15  H    0.000011   0.000016  -0.000030   0.000004   0.000000  -0.000000
    16  H    0.000006  -0.000010  -0.000058   0.000010   0.000000  -0.000000
    17  H   -0.000513  -0.000885  -0.000277   0.000179   0.000012  -0.000002
    18  H   -0.000139  -0.000506  -0.000057   0.000090   0.000005  -0.000000
    19  H   -0.000564  -0.003539   0.002412  -0.000164  -0.000054   0.000052
    20  H    0.000384   0.003173  -0.005666   0.000761   0.000130  -0.000091
    21  H    0.028703   0.010142  -0.000288  -0.000476  -0.000138  -0.000222
    22  H    0.157533   0.000931   0.025885  -0.025297  -0.002849   0.007610
    23  H   -0.011860  -0.018417   0.318660   0.002763  -0.016750   0.023885
    24  H   -0.002752  -0.040944  -0.011446   0.256546   0.062808   0.051900
    25  H    0.000450   0.027327   0.002895  -0.095584   0.331338   0.032689
    26  S    0.011039  -0.913836  -0.778394   0.632682  -0.336045  -1.232303
    27  O    0.000492  -0.055278  -0.094891   0.140384  -0.091080  -0.235480
    28  O    0.000231  -0.040332  -0.019495  -0.035665  -0.164095  -0.192051
    29  H   -0.001549   0.055948  -0.030594  -0.006441   0.030861   0.009780
    30  C   -0.001615   0.160133   0.143818  -0.023143   0.247876   0.122162
    31  F   -0.000004   0.003314   0.009567  -0.000935  -0.000752   0.054622
    32  F    0.000038  -0.006032  -0.006557   0.007926   0.026761  -0.074290
    33  F    0.000019  -0.006712   0.007488  -0.005739  -0.033976  -0.092523
    34  O    0.010078   0.010718   0.004831  -0.015392  -0.006677  -0.000414
    35  O   -0.014024  -0.141484  -0.022600   0.095883   0.052437   0.002100
    36  C   -0.003935   0.042302   0.000632  -0.025549  -0.023462  -0.006580
    37  C   -0.015646   0.007606  -0.005930  -0.004326  -0.010122  -0.003890
    38  C    0.002798  -0.021635  -0.002496   0.007773   0.015806   0.001276
    39  H    0.000049  -0.000381  -0.000024   0.000326   0.000026  -0.000001
    40  H    0.000038   0.000022  -0.000013   0.000008  -0.000058  -0.000004
    41  H   -0.000041   0.000203   0.000024  -0.000158  -0.000186  -0.000026
    42  H    0.000007   0.000088   0.000004  -0.000082  -0.000042  -0.000000
    43  H   -0.000012  -0.000777  -0.000028   0.000305   0.000438  -0.000005
              13         14         15         16         17         18
     1  C   -0.000622   0.455584   0.423770   0.415684  -0.043740  -0.035141
     2  C   -0.003490  -0.134107  -0.069517  -0.065622   0.418809   0.425535
     3  C   -0.057274   0.030649  -0.010706  -0.004322  -0.051706  -0.074322
     4  N    0.026457   0.000269  -0.000145   0.000009   0.004152   0.004228
     5  C   -0.454687  -0.001925   0.000057  -0.001930  -0.014078  -0.003291
     6  O    0.097289   0.000004  -0.000036  -0.000045  -0.000217  -0.000144
     7  N    0.103540   0.000008   0.000011   0.000006  -0.000513  -0.000139
     8  C   -4.103509  -0.000028   0.000016  -0.000010  -0.000885  -0.000506
     9  C    1.641231  -0.000003  -0.000030  -0.000058  -0.000277  -0.000057
    10  C   -1.495005  -0.000001   0.000004   0.000010   0.000179   0.000090
    11  C   -3.660928  -0.000000   0.000000   0.000000   0.000012   0.000005
    12  C    1.530669  -0.000000  -0.000000  -0.000000  -0.000002  -0.000000
    13  C   12.097089  -0.000000  -0.000001  -0.000003  -0.000011  -0.000003
    14  H   -0.000000   0.509205  -0.026357  -0.025912  -0.003330  -0.003256
    15  H   -0.000001  -0.026357   0.514732  -0.030765  -0.004695   0.003878
    16  H   -0.000003  -0.025912  -0.030765   0.512689   0.004000  -0.004546
    17  H   -0.000011  -0.003330  -0.004695   0.004000   0.493289  -0.026360
    18  H   -0.000003  -0.003256   0.003878  -0.004546  -0.026360   0.475468
    19  H    0.000445  -0.000069  -0.000348   0.002956   0.004004  -0.005195
    20  H   -0.000718  -0.000071   0.003164  -0.000417  -0.005631   0.003962
    21  H   -0.000094  -0.000001   0.000000  -0.000001   0.000504   0.000664
    22  H    0.003821  -0.000000  -0.000000  -0.000000   0.000002   0.000002
    23  H   -0.022459   0.000000  -0.000000   0.000000  -0.000000  -0.000000
    24  H   -0.009503  -0.000000  -0.000000  -0.000000  -0.000000   0.000000
    25  H    0.008315  -0.000000   0.000000   0.000000  -0.000000  -0.000000
    26  S    0.251409  -0.000000  -0.000000  -0.000000  -0.000000   0.000000
    27  O   -0.097625  -0.000000  -0.000000  -0.000000   0.000000   0.000000
    28  O    0.143821  -0.000000   0.000000  -0.000000  -0.000000   0.000000
    29  H    0.240369  -0.000000   0.000000   0.000000  -0.000000  -0.000000
    30  C   -0.215806  -0.000000   0.000000  -0.000000  -0.000000  -0.000000
    31  F    0.017057   0.000000   0.000000   0.000000  -0.000000  -0.000000
    32  F   -0.037913  -0.000000  -0.000000  -0.000000   0.000000  -0.000000
    33  F    0.076007  -0.000000   0.000000  -0.000000   0.000000  -0.000000
    34  O    0.000887  -0.000016  -0.000010  -0.000001  -0.000846  -0.001679
    35  O   -0.001958  -0.000000   0.000000   0.000000  -0.000006  -0.000019
    36  C    0.000446  -0.000049  -0.000010   0.000013   0.000435  -0.000270
    37  C    0.000097   0.000023  -0.000001  -0.000001   0.000066  -0.000016
    38  C   -0.000681  -0.000000   0.000000   0.000000  -0.000008  -0.000005
    39  H   -0.000001  -0.000000  -0.000000   0.000000   0.000000   0.000000
    40  H    0.000000  -0.000000  -0.000000   0.000000   0.000000  -0.000000
    41  H    0.000004  -0.000000  -0.000000  -0.000000  -0.000000  -0.000000
    42  H    0.000000   0.000000  -0.000000  -0.000000  -0.000000  -0.000000
    43  H   -0.000004  -0.000000  -0.000000  -0.000000  -0.000000  -0.000000
              19         20         21         22         23         24
     1  C   -0.010063  -0.006251   0.002289   0.000169   0.000019  -0.000001
     2  C   -0.056673  -0.057128  -0.002278   0.000510  -0.000039   0.000024
     3  C    0.452916   0.450081  -0.049565   0.004447   0.003717  -0.000334
     4  N   -0.058612  -0.059568   0.167749   0.031121   0.000565   0.000432
     5  C   -0.023134  -0.022853   0.021618  -0.030673   0.034575  -0.005002
     6  O    0.001318   0.001052   0.004057   0.003835  -0.005985   0.000056
     7  N   -0.000564   0.000384   0.028703   0.157533  -0.011860  -0.002752
     8  C   -0.003539   0.003173   0.010142   0.000931  -0.018417  -0.040944
     9  C    0.002412  -0.005666  -0.000288   0.025885   0.318660  -0.011446
    10  C   -0.000164   0.000761  -0.000476  -0.025297   0.002763   0.256546
    11  C   -0.000054   0.000130  -0.000138  -0.002849  -0.016750   0.062808
    12  C    0.000052  -0.000091  -0.000222   0.007610   0.023885   0.051900
    13  C    0.000445  -0.000718  -0.000094   0.003821  -0.022459  -0.009503
    14  H   -0.000069  -0.000071  -0.000001  -0.000000   0.000000  -0.000000
    15  H   -0.000348   0.003164   0.000000  -0.000000  -0.000000  -0.000000
    16  H    0.002956  -0.000417  -0.000001  -0.000000   0.000000  -0.000000
    17  H    0.004004  -0.005631   0.000504   0.000002  -0.000000  -0.000000
    18  H   -0.005195   0.003962   0.000664   0.000002  -0.000000   0.000000
    19  H    0.527670  -0.042648   0.001590   0.000007  -0.000001  -0.000000
    20  H   -0.042648   0.532671   0.001610   0.000004  -0.000001   0.000000
    21  H    0.001590   0.001610   0.253563   0.004709   0.000000   0.000004
    22  H    0.000007   0.000004   0.004709   0.257923  -0.000080   0.004512
    23  H   -0.000001  -0.000001   0.000000  -0.000080   0.423639  -0.000092
    24  H   -0.000000   0.000000   0.000004   0.004512  -0.000092   0.430102
    25  H   -0.000000  -0.000000  -0.000000  -0.000006   0.000009  -0.004001
    26  S    0.000001  -0.000001  -0.000006   0.000293  -0.001430   0.001859
    27  O    0.000000  -0.000000  -0.000000   0.000001   0.000015   0.000166
    28  O   -0.000000   0.000000  -0.000000   0.000000   0.000014   0.000013
    29  H   -0.000000  -0.000000  -0.000000   0.000001  -0.004991   0.000012
    30  C   -0.000000   0.000000  -0.000000  -0.000002   0.000083   0.000040
    31  F   -0.000000   0.000000   0.000000  -0.000000  -0.000000  -0.000000
    32  F    0.000000  -0.000000  -0.000000   0.000000  -0.000002   0.000000
    33  F    0.000000  -0.000000  -0.000000  -0.000000  -0.000002   0.000000
    34  O   -0.000027  -0.000095   0.055763   0.001535   0.000001  -0.000022
    35  O   -0.000007  -0.000002  -0.000960   0.049128   0.000007  -0.002638
    36  C    0.000287   0.000238  -0.005122  -0.004825  -0.000016  -0.000285
    37  C    0.000015   0.000020   0.007230   0.009441  -0.000001   0.001340
    38  C   -0.000001   0.000002  -0.001279  -0.001046  -0.000000  -0.000062
    39  H   -0.000000  -0.000000  -0.000002  -0.000008   0.000000  -0.000000
    40  H   -0.000000  -0.000000  -0.000001  -0.000007   0.000000   0.000000
    41  H   -0.000000   0.000000   0.000000  -0.000002   0.000000   0.000001
    42  H   -0.000000  -0.000000   0.000000   0.000000  -0.000000   0.000000
    43  H    0.000000  -0.000000   0.000000  -0.000003   0.000000  -0.000001
              25         26         27         28         29         30
     1  C    0.000000  -0.000004  -0.000000  -0.000000  -0.000000  -0.000000
     2  C    0.000000  -0.000064  -0.000000  -0.000000   0.000004   0.000006
     3  C    0.000030  -0.000463  -0.000004  -0.000008  -0.000083  -0.000082
     4  N    0.000009   0.001653   0.000009   0.000006  -0.000017  -0.000131
     5  C    0.003990  -0.038848  -0.000974  -0.001423  -0.005541  -0.001208
     6  O    0.000000  -0.001249  -0.000009  -0.000012   0.000464   0.000214
     7  N    0.000450   0.011039   0.000492   0.000231  -0.001549  -0.001615
     8  C    0.027327  -0.913836  -0.055278  -0.040332   0.055948   0.160133
     9  C    0.002895  -0.778394  -0.094891  -0.019495  -0.030594   0.143818
    10  C   -0.095584   0.632682   0.140384  -0.035665  -0.006441  -0.023143
    11  C    0.331338  -0.336045  -0.091080  -0.164095   0.030861   0.247876
    12  C    0.032689  -1.232303  -0.235480  -0.192051   0.009780   0.122162
    13  C    0.008315   0.251409  -0.097625   0.143821   0.240369  -0.215806
    14  H   -0.000000  -0.000000  -0.000000  -0.000000  -0.000000  -0.000000
    15  H    0.000000  -0.000000  -0.000000   0.000000   0.000000   0.000000
    16  H    0.000000  -0.000000  -0.000000  -0.000000   0.000000  -0.000000
    17  H   -0.000000  -0.000000   0.000000  -0.000000  -0.000000  -0.000000
    18  H   -0.000000   0.000000   0.000000   0.000000  -0.000000  -0.000000
    19  H   -0.000000   0.000001   0.000000  -0.000000  -0.000000  -0.000000
    20  H   -0.000000  -0.000001  -0.000000   0.000000  -0.000000   0.000000
    21  H   -0.000000  -0.000006  -0.000000  -0.000000  -0.000000  -0.000000
    22  H   -0.000006   0.000293   0.000001   0.000000   0.000001  -0.000002
    23  H    0.000009  -0.001430   0.000015   0.000014  -0.004991   0.000083
    24  H   -0.004001   0.001859   0.000166   0.000013   0.000012   0.000040
    25  H    0.434641  -0.003931   0.001254  -0.000906  -0.000137   0.000445
    26  S   -0.003931  17.410958   0.616443   0.528199   0.003798  -1.000428
    27  O    0.001254   0.616443   8.780791  -0.189713   0.000368  -0.229723
    28  O   -0.000906   0.528199  -0.189713   8.658908  -0.001654  -0.204094
    29  H   -0.000137   0.003798   0.000368  -0.001654   0.486953   0.004211
    30  C    0.000445  -1.000428  -0.229723  -0.204094   0.004211   5.784097
    31  F    0.000007  -0.128433  -0.015218  -0.006212   0.000042   0.261061
    32  F   -0.000019   0.111289   0.018044   0.012522  -0.000787   0.057606
    33  F   -0.000007   0.044613   0.015526   0.013044   0.001756   0.074278
    34  O    0.000000  -0.000017  -0.000000  -0.000000  -0.000000  -0.000000
    35  O    0.000017  -0.000045  -0.000002  -0.000001  -0.000000  -0.000002
    36  C    0.000010  -0.000539  -0.000014  -0.000008   0.000001   0.000011
    37  C    0.000001  -0.000187  -0.000003  -0.000001   0.000000   0.000003
    38  C   -0.000004   0.000053   0.000002   0.000000   0.000000   0.000000
    39  H   -0.000000  -0.000000  -0.000000  -0.000000   0.000000  -0.000000
    40  H   -0.000000  -0.000000  -0.000000   0.000000   0.000000   0.000000
    41  H   -0.000000  -0.000000  -0.000000   0.000000  -0.000000   0.000000
    42  H    0.000000  -0.000000  -0.000000  -0.000000   0.000000  -0.000000
    43  H    0.000000   0.000000   0.000000   0.000000  -0.000000  -0.000000
              31         32         33         34         35         36
     1  C    0.000000   0.000000  -0.000000   0.007462  -0.000150  -0.003120
     2  C    0.000000  -0.000000  -0.000000   0.012112  -0.000737  -0.002643
     3  C    0.000000   0.000000  -0.000001  -0.008820   0.006272   0.001183
     4  N   -0.000000   0.000000   0.000000  -0.033115   0.009328  -0.004597
     5  C    0.000022   0.000005  -0.000216  -0.002224   0.017191  -0.005047
     6  O    0.000000  -0.000002  -0.000002  -0.000349  -0.000108  -0.000330
     7  N   -0.000004   0.000038   0.000019   0.010078  -0.014024  -0.003935
     8  C    0.003314  -0.006032  -0.006712   0.010718  -0.141484   0.042302
     9  C    0.009567  -0.006557   0.007488   0.004831  -0.022600   0.000632
    10  C   -0.000935   0.007926  -0.005739  -0.015392   0.095883  -0.025549
    11  C   -0.000752   0.026761  -0.033976  -0.006677   0.052437  -0.023462
    12  C    0.054622  -0.074290  -0.092523  -0.000414   0.002100  -0.006580
    13  C    0.017057  -0.037913   0.076007   0.000887  -0.001958   0.000446
    14  H    0.000000  -0.000000  -0.000000  -0.000016  -0.000000  -0.000049
    15  H    0.000000  -0.000000   0.000000  -0.000010   0.000000  -0.000010
    16  H    0.000000  -0.000000  -0.000000  -0.000001   0.000000   0.000013
    17  H   -0.000000   0.000000   0.000000  -0.000846  -0.000006   0.000435
    18  H   -0.000000  -0.000000  -0.000000  -0.001679  -0.000019  -0.000270
    19  H   -0.000000   0.000000   0.000000  -0.000027  -0.000007   0.000287
    20  H    0.000000  -0.000000  -0.000000  -0.000095  -0.000002   0.000238
    21  H    0.000000  -0.000000  -0.000000   0.055763  -0.000960  -0.005122
    22  H   -0.000000   0.000000  -0.000000   0.001535   0.049128  -0.004825
    23  H   -0.000000  -0.000002  -0.000002   0.000001   0.000007  -0.000016
    24  H   -0.000000   0.000000   0.000000  -0.000022  -0.002638  -0.000285
    25  H    0.000007  -0.000019  -0.000007   0.000000   0.000017   0.000010
    26  S   -0.128433   0.111289   0.044613  -0.000017  -0.000045  -0.000539
    27  O   -0.015218   0.018044   0.015526  -0.000000  -0.000002  -0.000014
    28  O   -0.006212   0.012522   0.013044  -0.000000  -0.000001  -0.000008
    29  H    0.000042  -0.000787   0.001756  -0.000000  -0.000000   0.000001
    30  C    0.261061   0.057606   0.074278  -0.000000  -0.000002   0.000011
    31  F    9.151991  -0.043721  -0.046498  -0.000000   0.000000   0.000000
    32  F   -0.043721   9.212539  -0.034152  -0.000000  -0.000000  -0.000000
    33  F   -0.046498  -0.034152   9.236364   0.000000  -0.000000  -0.000000
    34  O   -0.000000  -0.000000   0.000000   8.599294  -0.193302   0.530432
    35  O    0.000000  -0.000000  -0.000000  -0.193302   8.579219   0.317928
    36  C    0.000000  -0.000000  -0.000000   0.530432   0.317928   5.461538
    37  C    0.000000  -0.000000  -0.000000  -0.277365  -0.189658  -0.727342
    38  C   -0.000000   0.000000   0.000000   0.024234   0.063555  -0.013957
    39  H    0.000000  -0.000000  -0.000000  -0.002965   0.001715  -0.068272
    40  H   -0.000000   0.000000  -0.000000  -0.002656   0.001594  -0.059885
    41  H   -0.000000  -0.000000  -0.000000  -0.000054  -0.005426  -0.004011
    42  H    0.000000  -0.000000  -0.000000  -0.000107   0.001924   0.036661
    43  H    0.000000  -0.000000  -0.000000  -0.000076  -0.005231  -0.010264
              37         38         39         40         41         42
[...]
 86,-0.00000552,-0.00000208,-0.00000426,0.00000849,-0.00001379,0.000001
 38,-0.00001714,-0.00001065,-0.00000040,-0.00000190,-0.00000021,0.00000
 027,-0.00000232,0.00000087,-0.00000286,-0.00000206,-0.00000032,0.00000
 055,0.00000826,0.00000198,0.00000217,0.00000994,0.00000461,-0.00000156
 ,0.00000130,-0.00000040,0.00000177,0.00000216,-0.00000014,-0.00000421,
 -0.00003003,-0.00017902,-0.00000641,-0.00002161,0.00030387,-0.00010222
 ,-0.00000690,-0.00000363,0.00000297,0.00000787,0.00004352,0.00001708,0
 .00000938,0.00000911,0.00000513,0.00001749,0.00003367,0.00001123,-0.00
 000620,-0.00001296,-0.00000553,-0.00000820,-0.00002528,-0.00000548,-0.
 00000107,-0.00000106,0.00000184,0.00001135,0.00003700,-0.00000060,-0.0
 0001073,-0.00000711,0.00000231,-0.00000424,-0.00002345,-0.00000635,0.0
 0000096,-0.00000892,0.00000394,0.00033491,0.00136500,-0.00115064,0.000
 65610,-0.00201450,-0.00021427,-0.00387178,-0.00054489,0.00237401,-0.13
 325944,-0.01141884,0.12504393,-0.01710157,-0.00230167,0.02454422,0.009
 07178,0.00185819,-0.01303092,0.14737930,0.00000488,0.00000617,-0.00000
 428,0.00000632,-0.00001617,0.00002317,-0.00004606,0.00002849,-0.000006
 37,0.00009322,0.00008517,0.00002995,-0.00031041,0.00008130,-0.00001335
 ,0.00009407,-0.00011737,0.00000965,-0.00005299,-0.00063154,0.00028174,
 0.00027102,0.00002297,0.00001370,-0.00006842,-0.00004949,-0.00000192,-
 0.00009353,0.00007420,-0.00001934,0.00004728,0.00001023,0.00000255,-0.
 00009000,-0.00003303,-0.00000422,0.00003330,-0.00001988,0.00000785,0.0
 0000599,0.00000052,0.00000304,-0.00000202,0.00000143,-0.00000359,0.000
 00063,-0.00000388,0.00000114,-0.00000343,0.00000264,-0.00000697,-0.000
 00147,-0.00000299,-0.00000116,0.00000604,-0.00000967,0.00000026,0.0000
 1276,-0.00000351,0.00000170,-0.00004574,-0.00004338,-0.00012863,0.0000
 0970,0.00096793,-0.00052685,0.00000153,0.00000087,0.00000086,0.0000831
 0,0.00000795,0.00000350,-0.00000579,-0.00000180,0.00000126,0.00012533,
 0.00001443,0.00000606,-0.00003706,0.00001532,-0.00000827,-0.00002858,-
 0.00001875,0.00000298,-0.00000409,-0.00000161,0.00000205,0.00000991,-0
 .00001828,-0.00003298,-0.00002273,0.00000066,0.00001694,-0.00000358,0.
 00001169,0.00000994,-0.00000453,0.00000233,0.00000670,0.00132180,-0.00
 026920,-0.00380802,-0.00141688,-0.00694921,-0.00229526,-0.01921458,0.0
 0030563,0.03044072,-0.01195754,-0.04650088,0.02168950,0.00874659,0.000
 56107,-0.01221614,0.01008490,0.00139749,-0.01443482,0.01094178,0.05139
 808,0.00000088,0.00000236,0.00000728,-0.00001178,0.00000401,-0.0000369
 3,0.00009557,-0.00003544,0.00001079,-0.00008726,0.00004944,-0.00000724
 ,0.00020973,-0.00010227,0.00002044,-0.00006625,0.00011349,-0.00002214,
 0.00002123,0.00035752,-0.00008984,-0.00016115,-0.00001209,-0.00000505,
 0.00004410,0.00003530,-0.00000537,0.00005486,-0.00005637,0.00001523,-0
 .00004107,-0.00001623,0.00000291,0.00007310,0.00003641,0.00000152,-0.0
 0002130,0.00001909,-0.00000612,-0.00002053,-0.00000288,-0.00000507,0.0
 0000144,-0.00000438,0.00000584,-0.00000184,0.00000391,-0.00000116,0.00
 001530,0.00000354,-0.00000203,0.00000998,0.00001476,0.00001553,-0.0000
 1491,0.00001254,0.00000273,-0.00001821,0.00000155,-0.00000403,0.000023
 92,-0.00009727,0.00005151,-0.00001587,-0.00054745,0.00015474,0.0000016
 3,0.00000007,-0.00000169,-0.00005277,-0.00001789,-0.00000515,-0.000003
 19,-0.00000293,-0.00000143,-0.00013517,-0.00004362,-0.00000605,0.00004
 166,-0.00000305,0.00000688,0.00003490,0.00003774,-0.00000161,0.0000024
 7,0.00000179,-0.00000140,-0.00002721,-0.00001172,0.00003420,0.00003506
 ,0.00000559,-0.00001989,0.00000849,0.00000708,-0.00000510,0.00000557,0
 .00000462,-0.00001011,-0.00208857,0.00091624,0.00180308,-0.00045860,0.
 00201938,0.00009440,0.00617171,-0.00306817,-0.00664768,0.12389796,0.01
 864555,-0.22398054,-0.00514657,-0.00073098,0.00680878,0.01407824,0.002
 69412,-0.02098859,-0.13573216,-0.02007029,0.24071073,0.00000408,0.0000
 0077,-0.00000352,-0.00000017,-0.00000413,0.00001907,-0.00000582,0.0000
 0034,0.00000413,0.00004852,0.00009315,-0.00004921,-0.00011408,-0.00001
 280,0.00001379,0.00002962,0.00002290,-0.00001297,0.00002242,-0.0000313
 6,-0.00001169,0.00000925,-0.00000214,0.00000676,0.,0.00000743,-0.00000
 333,-0.00001223,-0.00000723,-0.00001008,0.00001074,-0.00000452,-0.0000
 0044,0.00000046,0.00000030,-0.00000160,-0.00000255,0.00000196,-0.00000
 206,0.00000354,-0.00000065,0.00000279,-0.00000316,0.00000540,-0.000006
 06,-0.00000117,0.00000077,0.00000100,-0.00000132,-0.00000389,0.0000087
 7,0.00000429,-0.00000939,-0.00001467,0.00000117,0.00000097,-0.00000018
 ,0.00000134,0.00000727,-0.00000519,-0.00001176,-0.00012776,0.00004885,
 0.00000933,0.00005159,0.00001100,-0.00000182,0.00000081,0.00000210,0.0
 0002130,0.00000793,0.00001800,-0.00000629,-0.00000572,0.00000204,-0.00
 000661,-0.00000869,0.00001788,0.00000052,0.00000672,-0.00000852,0.0000
 0268,0.00000215,-0.00000564,-0.00000082,0.00000096,0.00000057,0.000003
 27,0.00000592,0.00001874,0.00000160,-0.00000096,-0.00000528,-0.0000006
 4,-0.00000575,-0.00000748,-0.00000255,0.00000134,-0.00000903,0.0007604
 1,0.00036656,-0.00041072,0.00166753,0.00013892,-0.00070008,-0.00153503
 ,-0.00196187,0.00085278,-0.01832104,-0.00165879,0.02615475,-0.13392597
 ,-0.01219994,0.12700917,0.00087307,-0.00089362,-0.00008034,-0.00517152
 ,0.00291610,-0.00195478,0.14827590,0.00000112,-0.00000313,0.00000163,-
 0.00000280,0.00000702,-0.00000399,0.00005436,-0.00002541,0.00000853,-0
 .00007551,0.00002092,0.00000164,0.00017455,-0.00010217,0.00002504,-0.0
 0005171,0.00009429,-0.00002202,-0.00000345,0.00023773,-0.00005824,-0.0
 0004740,0.00001906,0.00000049,0.00001312,0.00002517,-0.00000800,0.0000
 0453,-0.00007496,0.00004150,-0.00004560,-0.00001148,0.00000515,0.00007
 419,0.00004691,-0.00000556,-0.00000261,0.00002539,-0.00000674,-0.00000
 883,-0.00000242,-0.00000010,-0.00000022,0.00000203,-0.00000132,-0.0000
 0120,0.00000316,0.00000016,0.00000671,-0.00000050,0.00000435,0.0000045
 6,-0.00000177,-0.00000114,-0.00001027,0.00000976,0.00000155,-0.0000086
 2,0.00000593,-0.00000584,0.00003071,-0.00007152,0.00001247,-0.00003689
 ,-0.00039067,0.00008195,0.00000492,0.00000489,-0.00000208,-0.00003992,
 -0.00010574,-0.00004278,-0.00001494,-0.00000859,-0.00000262,-0.0001768
 1,-0.00004061,-0.00000176,0.00005787,-0.00000799,0.00000714,0.00004732
 ,0.00004068,-0.00000438,0.00000094,0.00000275,-0.00000093,-0.00003685,
 -0.00000087,0.00005255,0.00004560,0.00000446,-0.00002772,0.00001163,-0
 .00000107,-0.00001303,0.00000839,0.00000280,-0.00001514,-0.00090894,-0
 .00001704,0.00008021,-0.00111945,-0.00015464,0.00061608,0.00202314,0.0
 0075976,-0.00102148,0.00751274,0.00081055,-0.01179099,-0.01333376,-0.0
 4894832,0.01842614,-0.00069613,0.00040881,0.00025405,0.00274836,-0.000
 90965,0.00061875,0.01206008,0.04894591,-0.00000380,-0.00000341,0.00000
 108,0.00000077,0.00001221,-0.00000801,0.00000985,-0.00000420,-0.000001
 87,-0.00009842,-0.00010293,0.00003302,0.00019583,-0.00000079,0.0000046
 9,-0.00005139,-0.00001926,0.00000763,-0.00017263,-0.00001293,0.0000076
 5,0.00020027,0.00005799,-0.00001053,-0.00004719,-0.00002222,0.00000486
 ,-0.00009158,-0.00000084,0.00001692,0.00003552,0.00000317,0.00000707,-
 0.00004800,0.00001122,-0.00000494,0.00003858,0.00000827,0.00000080,-0.
 00000320,0.00000020,-0.00000098,0.00000177,-0.00000189,0.00000377,0.00
 000148,-0.00000083,-0.00000131,-0.00000117,0.00000022,-0.00000523,-0.0
 0000259,0.00000131,0.00000708,-0.00000344,0.00000042,-0.00000104,-0.00
 000255,-0.00000169,0.00000292,0.00001934,0.00011979,-0.00003988,0.0000
 0490,0.00003137,-0.00003015,0.00001053,0.00000681,-0.00000307,0.000034
 77,-0.00010151,-0.00000977,-0.00002268,-0.00002037,-0.00000574,0.00001
 369,-0.00005407,-0.00000305,-0.00000290,0.00003109,-0.00000027,0.00000
 470,0.00003502,0.00000561,-0.00000081,0.00000162,-0.00000167,-0.000013
 02,-0.00006075,0.00000118,0.00000995,0.00001083,-0.00000096,0.00000500
 ,0.00003713,0.00000862,-0.00000447,0.00001557,-0.00000972,-0.00036776,
 -0.00063164,0.00002047,-0.00160045,0.00030320,0.00027428,0.00148505,0.
 00154184,-0.00005988,-0.00424991,-0.00111983,0.00612902,0.12786339,0.0
 1657111,-0.23325764,0.00050402,-0.00039805,0.00079007,-0.00157384,0.00
 102988,0.00116668,-0.13850881,-0.02038078,0.25069068,0.00001116,0.0000
 0780,-0.00000140,-0.00001083,-0.00001545,0.00000336,0.00005315,-0.0000
 1430,0.00000632,0.00016163,0.00038956,-0.00009045,-0.00035413,-0.00005
 410,-0.00000760,0.00009012,0.00009983,-0.00001996,0.00019188,-0.000003
 42,0.00001104,-0.00019604,-0.00006713,0.00000635,0.00004867,0.00003392
 ,-0.00000574,0.00007597,0.00000933,0.00000019,-0.00001170,-0.00000784,
 0.00000143,0.00003994,-0.00000646,0.00000577,-0.00003984,-0.00000645,-
 0.00000126,-0.00000611,-0.00000297,0.00000023,-0.00000521,0.00000497,-
 0.00000499,-0.00000546,0.00000659,0.00000151,0.00001231,-0.00000182,0.
 00002175,0.00001503,-0.00001075,-0.00001669,-0.00000765,0.00001376,0.0
 0000234,-0.00000728,0.00001115,-0.00000932,-0.00006928,-0.00055681,0.0
 0013876,-0.00001599,-0.00001610,0.00000480,-0.00001210,-0.00000755,0.0
 0000112,-0.00002163,0.00006196,-0.00001424,0.00001526,0.00000710,-0.00
 000079,-0.00000314,0.00001102,-0.00000356,-0.00000353,-0.00000891,0.00
 000235,-0.00000477,-0.00001008,-0.00000047,0.00000080,-0.00000062,0.00
 000028,0.00001191,0.00001595,-0.00000234,-0.00000651,-0.00000301,0.000
 00140,-0.00000352,-0.00000907,-0.00000080,-0.00000065,-0.00000373,0.00
 000325,-0.00088720,0.00354822,-0.00097445,0.00226988,-0.00025376,0.000
 16354,-0.00716932,-0.00311195,0.00030884,0.00389380,0.03250346,-0.0082
 1049,-0.04992344,-0.02228755,0.00579594,0.00114387,-0.00085891,-0.0001
 3966,0.00114028,-0.00061452,0.00068485,-0.00178413,-0.01826718,0.00232
 498,0.05336053,-0.00001738,-0.00000436,0.00000022,0.00001157,0.0000158
 8,-0.00000261,-0.00013482,0.00005883,-0.00002258,-0.00006848,-0.000432
 44,0.00010813,0.00014844,0.00027837,-0.00006308,-0.00002164,-0.0002957
 0,0.00007520,-0.00028669,-0.00041245,0.00009265,0.00038095,0.00007144,
 0.00000270,-0.00010405,-0.00010094,0.00002016,-0.00013435,0.00011079,-
 0.00002919,0.00010077,0.00005239,-0.00000061,-0.00019848,-0.00007756,-
 0.00000404,0.00007208,-0.00003814,0.00001712,0.00001789,0.00000988,-0.
 00000092,0.00000816,-0.00001151,0.00001280,0.00000903,-0.00001620,-0.0
 0000517,-0.00002170,0.00000297,-0.00003705,-0.00002690,0.00001875,0.00
 002783,0.00002112,-0.00003208,-0.00000813,0.00001882,-0.00002436,0.000
 02396,-0.00001465,0.00071191,-0.00018450,0.00010997,0.00073136,-0.0001
 8532,0.00000885,0.00000208,-0.00000102,0.00009300,0.00006530,-0.000025
 97,0.00000965,0.00000584,-0.00000189,0.00035574,0.00007150,-0.00000076
 ,-0.00011263,0.00002534,-0.00001349,-0.00008833,-0.00006751,0.00001192
 ,-0.00000180,-0.00000439,0.00000129,0.00006230,-0.00001824,-0.00010054
 ,-0.00008492,-0.00000558,0.00005375,-0.00001877,0.00001309,0.00002622,
 -0.00001639,-0.00000065,0.00002536,0.00178692,-0.00230202,0.00070953,0
 .00085925,-0.00107102,0.00052567,0.00062032,0.00239422,-0.00042471,-0.
 00333769,-0.01140617,0.00248969,-0.02214733,-0.29291891,0.06200539,0.0
 0023151,0.00053499,0.00042793,0.00019919,0.00009906,-0.00056936,-0.000
 53384,-0.00143691,0.00030573,0.02326199,0.32005705,0.00000535,0.000001
 60,-0.00000051,-0.00000402,-0.00000422,0.00000500,0.00003886,-0.000016
 20,0.00000660,0.00002834,0.00014008,-0.00003062,-0.00006177,-0.0000779
 6,0.00001182,0.00001140,0.00008483,-0.00001943,0.00008699,0.00011311,-
 0.00000752,-0.00011210,-0.00002408,-0.00000641,0.00003039,0.00002884,-
 0.00000564,0.00003851,-0.00002293,0.00003077,-0.00002760,-0.00001291,0
 .00000642,0.00005479,0.00001955,-0.00000031,-0.00002149,0.00000999,-0.
 00000402,-0.00000520,-0.00000256,0.00000122,-0.00000235,0.00000403,-0.
 00000438,-0.00000281,0.00000373,0.00000115,0.00000718,-0.00000077,0.00
 001013,0.00000760,-0.00000617,-0.00000926,-0.00000630,0.00000898,0.000
 00210,-0.00000515,0.00000734,-0.00000721,-0.00000049,-0.00022481,0.000
 05427,-0.00002946,-0.00019998,0.00002910,-0.00000308,-0.00000112,-0.00
 000016,-0.00002260,-0.00002775,-0.00004712,-0.00000142,-0.00000231,-0.
 00000417,-0.00009377,-0.00001808,-0.00000382,0.00002935,-0.00000778,0.
 00000568,0.00002271,0.00001751,-0.00000233,0.00000058,0.00000109,-0.00
 000036,-0.00001848,0.00000011,0.00002476,0.00002359,0.00000224,-0.0000
 1402,0.00000580,-0.00000029,-0.00000558,0.00000462,0.00000085,-0.00000
 604,-0.00053366,0.00084200,-0.00022566,-0.00013740,0.00046632,0.000608
 37,-0.00065410,-0.00067427,0.00067457,0.00121745,0.00483628,-0.0022805
 2,0.00577904,0.06200682,-0.06655486,0.00016550,0.00015523,-0.00022753,
 -0.00012969,-0.00042728,0.00025494,0.00075628,0.02699621,-0.00556422,-
 0.00561745,-0.06987279,0.06554206,0.00000326,0.00000174,0.00000289,0.0
 0000191,-0.00001008,-0.00001345,-0.00000206,-0.00000350,-0.00000422,0.
 00003075,0.00009526,0.00000444,-0.00008161,-0.00002488,-0.00001577,0.0
 0002049,0.00002841,0.00000213,-0.00000090,-0.00001308,0.00002387,0.000
 03216,0.00000358,-0.00000465,-0.00000554,0.00000620,-0.00000004,-0.000
 02393,-0.00000700,0.00000657,0.00001309,-0.00000342,0.00000419,-0.0000
 0350,0.00000339,-0.00000116,0.00000222,0.00000407,0.00000026,0.0000032
 5,-0.00000173,-0.00000147,-0.00000101,0.00000053,-0.00000139,-0.000003
 50,0.00000710,0.00000221,0.00000195,-0.00000169,0.00001733,-0.00000018
 ,-0.00000778,-0.00000633,0.00000024,0.00000897,0.00000130,0.00000033,0
 .00000167,-0.00000044,-0.00000663,-0.00012558,0.00001575,0.00001008,0.
 00002817,-0.00002773,-0.00000018,0.00000078,-0.00000249,0.00002468,-0.
 00001223,-0.00000642,-0.00000940,-0.00000805,0.00000244,-0.00000951,-0
 .00002046,-0.00000083,0.00000313,0.00000895,-0.00000062,0.00000414,0.0
 0001278,0.00000170,-0.00000068,0.00000089,-0.00000101,-0.00000496,-0.0
 0000930,0.00000403,0.00000518,0.00000206,-0.00000225,0.00000154,0.0000
 0607,0.00000044,-0.00000003,0.00000263,-0.00000257,0.00061938,0.000482
 79,0.00028529,0.00134385,0.00049161,0.00063180,-0.00124794,-0.00194242
 ,0.00000039,-0.01499542,-0.01499053,-0.02409553,-0.10508786,-0.0616749
 9,-0.09328903,-0.00532597,0.00331254,-0.00058474,0.00086388,-0.0007923
 1,0.00054655,0.00915764,0.01000425,0.01410626,-0.00198671,-0.00101667,
 -0.00082396,0.11665440,0.00000285,-0.00000133,-0.00000004,-0.00000261,
 -0.00000027,-0.00000101,0.00004219,-0.00002050,0.00000690,-0.00001685,
 0.00006727,-0.00002189,0.00005443,-0.00008529,0.00003138,-0.00001941,0
 .00009020,-0.00002584,0.00007838,0.00021159,-0.00004450,-0.00013378,-0
 .00001756,-0.00001716,0.00003373,0.00003387,-0.00000233,0.00004863,-0.
 00006797,0.00001231,-0.00005667,-0.00001323,-0.00000566,0.00008598,0.0
 0003670,0.00000543,-0.00002059,0.00001718,-0.00000839,-0.00000592,-0.0
 0000233,-0.00000020,-0.00000158,0.00000235,-0.00000233,-0.00000136,0.0
 0000387,0.00000132,0.00000442,0.00000027,0.00000592,0.00000707,-0.0000
 0327,-0.00000438,-0.00000697,0.00000827,0.00000232,-0.00000648,0.00000
 628,-0.00000613,0.00001680,-0.00011993,0.00003320,-0.00003351,-0.00034
 830,0.00008814,-0.00000089,0.00000106,0.00000019,-0.00005420,-0.000019
 49,0.00004330,-0.00000216,0.00000142,-0.00000247,-0.00015914,-0.000011
 68,-0.00001566,0.00005273,-0.00002291,0.00001624,0.00003882,0.00002283
 ,-0.00000127,0.00000112,0.00000139,-0.00000083,-0.00002309,0.00001323,
 0.00003214,0.00003245,0.00000108,-0.00001928,0.00000718,-0.00000783,-0
 .00000842,0.00000860,-0.00000303,-0.00000358,-0.00055583,0.00021007,-0
 .00025332,-0.00013371,-0.00042609,-0.00021434,0.00089960,0.00032674,0.
 00091357,0.00647236,0.00738511,0.01117399,-0.06291585,-0.11274241,-0.1
 0030818,0.00293767,-0.00090585,0.00104390,-0.00081216,0.00050467,-0.00
 021246,0.00177269,0.00083747,0.00280201,-0.01378620,-0.01465391,-0.024
 12252,0.06615124,0.11969026,0.00000311,0.00000516,0.00000021,0.0000015
 8,-0.00001798,-0.00000275,-0.00003515,0.00001382,-0.00001045,0.0001249
 6,0.00010022,0.00000244,-0.00026549,0.00004146,-0.00004132,0.00007193,
 -0.00002174,0.00001884,0.00015049,-0.00009868,0.00005133,-0.00014667,-
 0.00005874,0.00000599,0.00003337,0.00000741,-0.00000098,0.00006985,0.0
 0005049,0.00002325,-0.00000775,0.00000732,0.00000831,0.00000317,-0.000
 03290,0.00000996,-0.00003175,-0.00001868,0.00000572,0.00000770,0.00000
 052,-0.00000046,-0.00000077,-0.00000105,-0.00000096,-0.00000220,0.0000
 0257,0.00000211,-0.00000046,0.00000203,0.00000745,-0.00000192,-0.00000
 213,-0.00000351,0.00000679,-0.00000018,0.00000131,0.00000746,-0.000003
 96,0.00000293,-0.00003139,-0.00009264,0.00000688,0.00001716,0.00015221
 ,-0.00006761,-0.00001143,-0.00000939,-0.00000129,-0.00000056,0.0001030
 8,-0.00009765,0.00002714,0.00001574,-0.00001393,0.00007512,0.00006006,
 -0.00004427,-0.00002317,-0.00002690,0.00002285,-0.00002811,-0.00003907
 ,0.00001276,0.00000062,-0.00000319,-0.00000010,0.00002014,0.00000665,-
 0.00006043,-0.00002769,-0.00000375,0.00002309,-0.00000630,0.00000149,0
 .00001812,0.00000148,-0.00000900,0.00002882,0.00084760,0.00059996,-0.0
 0010712,0.00203229,0.00023923,0.00087502,-0.00241828,-0.00207061,0.000
 10482,-0.00169590,-0.00155928,-0.00359530,-0.09358240,-0.09829107,-0.1
 9832156,-0.00081558,0.00066550,0.00130488,-0.00008975,0.00042460,0.000
 68604,-0.01313679,-0.01381898,-0.02016414,0.00563127,0.00459044,0.0077
 6274,0.10322628,0.10908995,0.21154798\\-0.00000097,0.00000026,-0.00000
 135,0.00000043,-0.00000291,0.00000234,-0.00000031,-0.00000077,-0.00000
 015,0.00000715,0.00002332,0.00000096,-0.00000714,0.00000264,-0.0000133
 0,0.00001064,0.00000488,0.00000498,0.00000395,-0.00000122,0.00000186,-
 0.00000308,-0.00000490,-0.00001207,-0.00000417,-0.00000091,-0.00000049
 ,-0.00000100,-0.00000113,0.00000746,0.00000362,-0.00000189,0.00000511,
 -0.00000100,0.00000812,-0.00000397,0.00000325,-0.00000582,0.00000659,0
 .00000065,-0.00000087,-0.00000059,-0.00000014,-0.00000112,-0.00000130,
 -0.00000048,-0.00000043,-0.00000102,0.00000004,-0.00000083,0.00000187,
 0.00000060,-0.00000116,-0.00000239,0.00000322,-0.00000034,-0.00000291,
 -0.00000021,-0.00000250,-0.00000248,-0.00000419,-0.00002254,0.00000840
 ,-0.00000057,0.00000601,0.00000638,-0.00000178,0.00000200,-0.00000179,
 0.00000211,0.00000130,-0.00000085,-0.00000071,-0.00000045,-0.00000078,
 0.00001106,-0.00000421,-0.00001461,-0.00000649,-0.00000157,0.00000407,
 -0.00001264,0.00000584,0.00000504,0.00000296,0.00000621,-0.00000271,-0
 .00000417,-0.00000102,0.00000471,-0.00001381,-0.00000280,0.00000035,0.
 00000392,0.00000381,-0.00000320,0.00000565,-0.00000395,0.00000055,-0.0
 0000218,-0.00001013,-0.00002661,0.00000170,0.00000061,-0.00002664,-0.0
 0000296,0.00001458,0.00006462,0.00000265,-0.00000490,-0.00001762,0.000
 00214,-0.00000153,0.00000429,-0.00000119,-0.00000522,0.00000386,0.0000
 0227,0.00000554,0.00000038,0.00000123,-0.00000042,0.00000188,0.0000009
 8,-0.00000045,0.00000145,-0.00000100,0.00000084,-0.00000029\\\@


 YOU CAN WIPE THE SLATE CLEAN, BUT YOU'LL STILL
 HAVE TO EAT A LITTLE CHALK DUST.
 Job cpu time:       0 days  8 hours 16 minutes 53.0 seconds.
 File lengths (MBytes):  RWF=   1233 Int=      0 D2E=      0 Chk=     21 Scr=      1
 Normal termination of Gaussian 09 at Tue Feb 19 13:39:32 2019.
WARNING: pbs_rusage is deprecated and values produced may not be accurate


=============================================================================
                                     Resource usage:
                                       CPU time:              20:38:05
   JobId:    5880901.r-man2            Elapsed time:          02:35:23
   Project:             q95            Requested time:        50:00:00
   Service Units:     20.72 
                                       Max physical memory:     1578MB
                                       Max virtual memory:      3224MB
                                       Requested memory:           0MB

                                       Number of cpus:               8

                                       Max jobfs disk use:       1.2GB
                                       Requested jobfs:         24.0GB
=============================================================================

