 Entering Gaussian System, Link 0=/apps/gaussian/g09e01/g09/g09
 AtFile(1): /home/507/hio507/Basis/6-31pGd.gbs
 Initial command:
 /apps/gaussian/g09e01/g09/l1.exe "/jobfs/local/8295544.r-man2/Gau-18619.inp" -scrdir="/jobfs/local/8295544.r-man2/"
 Entering Link 1 = /apps/gaussian/g09e01/g09/l1.exe PID=     18656.
  
 Copyright (c) 1988,1990,1992,1993,1995,1998,2003,2009,2015,
            Gaussian, Inc.  All Rights Reserved.
  
 This is part of the Gaussian(R) 09 program.  It is based on
 the Gaussian(R) 03 system (copyright 2003, Gaussian, Inc.),
 the Gaussian(R) 98 system (copyright 1998, Gaussian, Inc.),
 the Gaussian(R) 94 system (copyright 1995, Gaussian, Inc.),
 the Gaussian 92(TM) system (copyright 1992, Gaussian, Inc.),
 the Gaussian 90(TM) system (copyright 1990, Gaussian, Inc.),
 the Gaussian 88(TM) system (copyright 1988, Gaussian, Inc.),
 the Gaussian 86(TM) system (copyright 1986, Carnegie Mellon
 University), and the Gaussian 82(TM) system (copyright 1983,
 Carnegie Mellon University). Gaussian is a federally registered
 trademark of Gaussian, Inc.
  
 This software contains proprietary and confidential information,
 including trade secrets, belonging to Gaussian, Inc.
  
 This software is provided under written license and may be
 used, copied, transmitted, or stored only in accord with that
 written license.
  
 The following legend is applicable only to US Government
 contracts under FAR:
  
                    RESTRICTED RIGHTS LEGEND
  
 Use, reproduction and disclosure by the US Government is
 subject to restrictions as set forth in subparagraphs (a)
 and (c) of the Commercial Computer Software - Restricted
 Rights clause in FAR 52.227-19.
  
 Gaussian, Inc.
 340 Quinnipiac St., Bldg. 40, Wallingford CT 06492
  
  
 ---------------------------------------------------------------
 Warning -- This program may not be used in any manner that
 competes with the business of Gaussian, Inc. or will provide
 assistance to any competitor of Gaussian, Inc.  The licensee
 of this program is prohibited from giving any competitor of
 Gaussian, Inc. access to this program.  By using this program,
 the user acknowledges that Gaussian, Inc. is engaged in the
 business of creating and licensing software in the field of
 computational chemistry and represents and warrants to the
 licensee that it is not a competitor of Gaussian, Inc. and that
 it will not use this program in any manner prohibited above.
 ---------------------------------------------------------------
  

 Cite this work as:
 Gaussian 09, Revision E.01,
 M. J. Frisch, G. W. Trucks, H. B. Schlegel, G. E. Scuseria, 
 M. A. Robb, J. R. Cheeseman, G. Scalmani, V. Barone, B. Mennucci, 
 G. A. Petersson, H. Nakatsuji, M. Caricato, X. Li, H. P. Hratchian, 
 A. F. Izmaylov, J. Bloino, G. Zheng, J. L. Sonnenberg, M. Hada, 
 M. Ehara, K. Toyota, R. Fukuda, J. Hasegawa, M. Ishida, T. Nakajima, 
 Y. Honda, O. Kitao, H. Nakai, T. Vreven, J. A. Montgomery, Jr., 
 J. E. Peralta, F. Ogliaro, M. Bearpark, J. J. Heyd, E. Brothers, 
 K. N. Kudin, V. N. Staroverov, T. Keith, R. Kobayashi, J. Normand, 
 K. Raghavachari, A. Rendell, J. C. Burant, S. S. Iyengar, J. Tomasi, 
 M. Cossi, N. Rega, J. M. Millam, M. Klene, J. E. Knox, J. B. Cross, 
 V. Bakken, C. Adamo, J. Jaramillo, R. Gomperts, R. E. Stratmann, 
 O. Yazyev, A. J. Austin, R. Cammi, C. Pomelli, J. W. Ochterski, 
 R. L. Martin, K. Morokuma, V. G. Zakrzewski, G. A. Voth, 
 P. Salvador, J. J. Dannenberg, S. Dapprich, A. D. Daniels, 
 O. Farkas, J. B. Foresman, J. V. Ortiz, J. Cioslowski, 
 and D. J. Fox, Gaussian, Inc., Wallingford CT, 2013.
 
 ******************************************
 Gaussian 09:  ES64L-G09RevE.01 30-Nov-2015
                10-Jul-2018 
 ******************************************
 %chk=aryl_urea_OCF3_a1.M062X.SMD.h2o.opt.chk
 %mem=196608000
 %nproc=4
 Will use up to    4 processors via shared memory.
 ----------------------------------------------------------------------
 # M062X/Gen 6D SCF=Tight INT(grid=ultrafine) OPT IOP(2/17=4) Freq=Nora
 man SCRF=(SMD,Solvent=h2o) maxdisk=2147483648
 ----------------------------------------------------------------------
 1/14=-1,18=20,19=15,26=4,38=1/1,3;
 2/9=110,12=2,17=4,18=5,40=1/2;
 3/5=7,8=2,11=2,16=1,25=1,30=1,70=32201,71=1,72=1,74=-55,75=-5/1,2,3;
 4//1;
 5/5=2,32=2,38=5,53=1/2;
 6/7=2,8=2,9=2,10=2,28=1/1;
 7//1,2,3,16;
 1/14=-1,18=20,19=15,26=4/3(2);
 2/9=110,17=4/2;
 99//99;
 2/9=110,17=4/2;
 3/5=7,6=1,8=2,11=2,16=1,25=1,30=1,70=32205,71=1,72=1,74=-55,75=-5,82=7/1,2,3;
 4/5=5,16=3,69=1/1;
 5/5=2,32=2,38=5,53=1/2;
 7//1,2,3,16;
 1/14=-1,18=20,19=15,26=4/3(-5);
 2/9=110,17=4/2;
 6/7=2,8=2,9=2,10=2,19=2,28=1/1;
 99/9=1/99;
 -----------------------------------
 aryl_urea_OCF3_a1.M062X.SMD.h2o.opt
 -----------------------------------
 Symbolic Z-matrix:
 Charge = -1 Multiplicity = 1
 C                    -4.20435   3.57003  -1.03237 
 C                    -4.22848   2.19251  -0.75271 
 C                    -3.08843   1.55263  -0.26077 
 C                    -1.89208   2.2589   -0.03182 
 C                    -1.87968   3.64523  -0.317 
 C                    -3.02337   4.28211  -0.80947 
 N                    -0.76626   1.51953   0.4764 
 C                     0.48531   1.98923   0.77209 
 N                     1.42898   1.12838   1.24834 
 O                     0.77441   3.1651    0.61786 
 C                     2.77289   1.57005   1.57892 
 C                     3.62491   0.40265   2.09026 
 C                     5.03793   0.86097   2.43911 
 H                    -3.14131   0.4904   -0.05589 
 H                    -1.01851   4.27187  -0.17686 
 H                     1.18214   0.13447   1.37792 
 H                     2.71737   2.35432   2.36599 
 H                     3.25037   2.00101   0.67122 
 H                     3.6841   -0.38403   1.30678 
 H                     3.15216  -0.03143   2.99816 
 H                     5.54019   1.2811    1.54171 
 H                     5.62992  -0.004     2.80561 
 H                     5.00732   1.63431   3.23603 
 O                    -5.28116   4.2473   -1.51223 
 C                    -6.52871   3.72622  -1.79588 
 F                    -7.34168   4.74064  -2.26308 
 F                    -6.4297    2.75083  -2.77252 
 F                    -7.09651   3.193    -0.65208 
 H                    -5.12031   1.60222  -0.91008 
 H                    -2.99001   5.34408  -1.02043 
 

 GradGradGradGradGradGradGradGradGradGradGradGradGradGradGradGradGradGrad
 Berny optimization.
 Initialization pass.
                           ----------------------------
                           !    Initial Parameters    !
                           ! (Angstroms and Degrees)  !
 --------------------------                            --------------------------
 ! Name  Definition              Value          Derivative Info.                !
 --------------------------------------------------------------------------------
 ! R1    R(1,2)                  1.4058         estimate D2E/DX2                !
 ! R2    R(1,6)                  1.3969         estimate D2E/DX2                !
 ! R3    R(1,24)                 1.3596         estimate D2E/DX2                !
 ! R4    R(2,3)                  1.3968         estimate D2E/DX2                !
 ! R5    R(2,29)                 1.081          estimate D2E/DX2                !
 ! R6    R(3,4)                  1.408          estimate D2E/DX2                !
 ! R7    R(3,14)                 1.0831         estimate D2E/DX2                !
 ! R8    R(4,5)                  1.4154         estimate D2E/DX2                !
 ! R9    R(4,7)                  1.4396         estimate D2E/DX2                !
 ! R10   R(5,6)                  1.3986         estimate D2E/DX2                !
 ! R11   R(5,15)                 1.0742         estimate D2E/DX2                !
 ! R12   R(6,30)                 1.0832         estimate D2E/DX2                !
 ! R13   R(7,8)                  1.3691         estimate D2E/DX2                !
 ! R14   R(8,9)                  1.3632         estimate D2E/DX2                !
 ! R15   R(8,10)                 1.2207         estimate D2E/DX2                !
 ! R16   R(9,11)                 1.4527         estimate D2E/DX2                !
 ! R17   R(9,16)                 1.0323         estimate D2E/DX2                !
 ! R18   R(11,12)                1.533          estimate D2E/DX2                !
 ! R19   R(11,17)                1.1125         estimate D2E/DX2                !
 ! R20   R(11,18)                1.1125         estimate D2E/DX2                !
 ! R21   R(12,13)                1.5259         estimate D2E/DX2                !
 ! R22   R(12,19)                1.1118         estimate D2E/DX2                !
 ! R23   R(12,20)                1.1118         estimate D2E/DX2                !
 ! R24   R(13,21)                1.1109         estimate D2E/DX2                !
 ! R25   R(13,22)                1.1104         estimate D2E/DX2                !
 ! R26   R(13,23)                1.1109         estimate D2E/DX2                !
 ! R27   R(24,25)                1.3814         estimate D2E/DX2                !
 ! R28   R(25,26)                1.3814         estimate D2E/DX2                !
 ! R29   R(25,27)                1.3838         estimate D2E/DX2                !
 ! R30   R(25,28)                1.3838         estimate D2E/DX2                !
 ! A1    A(2,1,6)              118.8322         estimate D2E/DX2                !
 ! A2    A(2,1,24)             123.0062         estimate D2E/DX2                !
 ! A3    A(6,1,24)             118.1617         estimate D2E/DX2                !
 ! A4    A(1,2,3)              120.3258         estimate D2E/DX2                !
 ! A5    A(1,2,29)             121.3499         estimate D2E/DX2                !
 ! A6    A(3,2,29)             118.3243         estimate D2E/DX2                !
 ! A7    A(2,3,4)              121.3965         estimate D2E/DX2                !
 ! A8    A(2,3,14)             118.4268         estimate D2E/DX2                !
 ! A9    A(4,3,14)             120.1767         estimate D2E/DX2                !
 ! A10   A(3,4,5)              117.7739         estimate D2E/DX2                !
 ! A11   A(3,4,7)              117.6624         estimate D2E/DX2                !
 ! A12   A(5,4,7)              124.5637         estimate D2E/DX2                !
 ! A13   A(4,5,6)              120.6494         estimate D2E/DX2                !
 ! A14   A(4,5,15)             123.5113         estimate D2E/DX2                !
 ! A15   A(6,5,15)             115.8394         estimate D2E/DX2                !
 ! A16   A(1,6,5)              121.0222         estimate D2E/DX2                !
 ! A17   A(1,6,30)             119.6496         estimate D2E/DX2                !
 ! A18   A(5,6,30)             119.3281         estimate D2E/DX2                !
 ! A19   A(4,7,8)              127.9479         estimate D2E/DX2                !
 ! A20   A(7,8,9)              119.4465         estimate D2E/DX2                !
 ! A21   A(7,8,10)             121.3116         estimate D2E/DX2                !
 ! A22   A(9,8,10)             119.2419         estimate D2E/DX2                !
 ! A23   A(8,9,11)             121.8628         estimate D2E/DX2                !
 ! A24   A(8,9,16)             119.1002         estimate D2E/DX2                !
 ! A25   A(11,9,16)            119.037          estimate D2E/DX2                !
 ! A26   A(9,11,12)            111.0095         estimate D2E/DX2                !
 ! A27   A(9,11,17)            109.2174         estimate D2E/DX2                !
 ! A28   A(9,11,18)            109.2174         estimate D2E/DX2                !
 ! A29   A(12,11,17)           109.1828         estimate D2E/DX2                !
 ! A30   A(12,11,18)           109.1837         estimate D2E/DX2                !
 ! A31   A(17,11,18)           109.0004         estimate D2E/DX2                !
 ! A32   A(11,12,13)           111.2347         estimate D2E/DX2                !
 ! A33   A(11,12,19)           109.4714         estimate D2E/DX2                !
 ! A34   A(11,12,20)           109.4722         estimate D2E/DX2                !
 ! A35   A(13,12,19)           108.9243         estimate D2E/DX2                !
 ! A36   A(13,12,20)           108.9244         estimate D2E/DX2                !
 ! A37   A(19,12,20)           108.7723         estimate D2E/DX2                !
 ! A38   A(12,13,21)           110.3396         estimate D2E/DX2                !
 ! A39   A(12,13,22)           109.5837         estimate D2E/DX2                !
 ! A40   A(12,13,23)           110.3395         estimate D2E/DX2                !
 ! A41   A(21,13,22)           108.6745         estimate D2E/DX2                !
 ! A42   A(21,13,23)           109.189          estimate D2E/DX2                !
 ! A43   A(22,13,23)           108.6748         estimate D2E/DX2                !
 ! A44   A(1,24,25)            126.8571         estimate D2E/DX2                !
 ! A45   A(24,25,26)           108.9005         estimate D2E/DX2                !
 ! A46   A(24,25,27)           110.253          estimate D2E/DX2                !
 ! A47   A(24,25,28)           110.2534         estimate D2E/DX2                !
 ! A48   A(26,25,27)           108.7243         estimate D2E/DX2                !
 ! A49   A(26,25,28)           108.7253         estimate D2E/DX2                !
 ! A50   A(27,25,28)           109.9437         estimate D2E/DX2                !
 ! D1    D(6,1,2,3)             -0.0003         estimate D2E/DX2                !
 ! D2    D(6,1,2,29)          -179.9998         estimate D2E/DX2                !
 ! D3    D(24,1,2,3)           179.9995         estimate D2E/DX2                !
 ! D4    D(24,1,2,29)            0.0            estimate D2E/DX2                !
 ! D5    D(2,1,6,5)             -0.0002         estimate D2E/DX2                !
 ! D6    D(2,1,6,30)           179.9998         estimate D2E/DX2                !
 ! D7    D(24,1,6,5)           180.0            estimate D2E/DX2                !
 ! D8    D(24,1,6,30)            0.0            estimate D2E/DX2                !
 ! D9    D(2,1,24,25)            0.0008         estimate D2E/DX2                !
 ! D10   D(6,1,24,25)         -179.9993         estimate D2E/DX2                !
 ! D11   D(1,2,3,4)              0.0005         estimate D2E/DX2                !
 ! D12   D(1,2,3,14)           179.9996         estimate D2E/DX2                !
 ! D13   D(29,2,3,4)          -180.0            estimate D2E/DX2                !
 ! D14   D(29,2,3,14)           -0.0009         estimate D2E/DX2                !
 ! D15   D(2,3,4,5)             -0.0003         estimate D2E/DX2                !
 ! D16   D(2,3,4,7)            179.9996         estimate D2E/DX2                !
 ! D17   D(14,3,4,5)          -179.9993         estimate D2E/DX2                !
 ! D18   D(14,3,4,7)             0.0005         estimate D2E/DX2                !
 ! D19   D(3,4,5,6)             -0.0002         estimate D2E/DX2                !
 ! D20   D(3,4,5,15)          -179.9995         estimate D2E/DX2                !
 ! D21   D(7,4,5,6)            179.9999         estimate D2E/DX2                !
 ! D22   D(7,4,5,15)             0.0007         estimate D2E/DX2                !
 ! D23   D(3,4,7,8)           -179.9978         estimate D2E/DX2                !
 ! D24   D(5,4,7,8)              0.0021         estimate D2E/DX2                !
 ! D25   D(4,5,6,1)              0.0004         estimate D2E/DX2                !
 ! D26   D(4,5,6,30)          -179.9996         estimate D2E/DX2                !
 ! D27   D(15,5,6,1)           179.9998         estimate D2E/DX2                !
 ! D28   D(15,5,6,30)           -0.0003         estimate D2E/DX2                !
 ! D29   D(4,7,8,9)           -179.9995         estimate D2E/DX2                !
 ! D30   D(4,7,8,10)             0.0002         estimate D2E/DX2                !
 ! D31   D(7,8,9,11)          -179.9997         estimate D2E/DX2                !
 ! D32   D(7,8,9,16)             0.0            estimate D2E/DX2                !
 ! D33   D(10,8,9,11)            0.0005         estimate D2E/DX2                !
 ! D34   D(10,8,9,16)         -179.9997         estimate D2E/DX2                !
 ! D35   D(8,9,11,12)          179.9998         estimate D2E/DX2                !
 ! D36   D(8,9,11,17)           59.5604         estimate D2E/DX2                !
 ! D37   D(8,9,11,18)          -59.5596         estimate D2E/DX2                !
 ! D38   D(16,9,11,12)           0.0            estimate D2E/DX2                !
 ! D39   D(16,9,11,17)        -120.4394         estimate D2E/DX2                !
 ! D40   D(16,9,11,18)         120.4406         estimate D2E/DX2                !
 ! D41   D(9,11,12,13)        -179.9998         estimate D2E/DX2                !
 ! D42   D(9,11,12,19)          59.5738         estimate D2E/DX2                !
 ! D43   D(9,11,12,20)         -59.5727         estimate D2E/DX2                !
 ! D44   D(17,11,12,13)        -59.5399         estimate D2E/DX2                !
 ! D45   D(17,11,12,19)       -179.9663         estimate D2E/DX2                !
 ! D46   D(17,11,12,20)         60.8871         estimate D2E/DX2                !
 ! D47   D(18,11,12,13)         59.5397         estimate D2E/DX2                !
 ! D48   D(18,11,12,19)        -60.8867         estimate D2E/DX2                !
 ! D49   D(18,11,12,20)        179.9667         estimate D2E/DX2                !
 ! D50   D(11,12,13,21)        -60.3738         estimate D2E/DX2                !
 ! D51   D(11,12,13,22)       -179.9995         estimate D2E/DX2                !
 ! D52   D(11,12,13,23)         60.3745         estimate D2E/DX2                !
 ! D53   D(19,12,13,21)         60.3748         estimate D2E/DX2                !
 ! D54   D(19,12,13,22)        -59.2509         estimate D2E/DX2                !
 ! D55   D(19,12,13,23)       -178.8768         estimate D2E/DX2                !
 ! D56   D(20,12,13,21)        178.8764         estimate D2E/DX2                !
 ! D57   D(20,12,13,22)         59.2508         estimate D2E/DX2                !
 ! D58   D(20,12,13,23)        -60.3752         estimate D2E/DX2                !
 ! D59   D(1,24,25,26)        -180.0            estimate D2E/DX2                !
 ! D60   D(1,24,25,27)         -60.7905         estimate D2E/DX2                !
 ! D61   D(1,24,25,28)          60.7892         estimate D2E/DX2                !
 --------------------------------------------------------------------------------
 Trust Radius=3.00D-01 FncErr=1.00D-07 GrdErr=1.00D-06
 Number of steps in this run=    151 maximum allowed number of steps=    180.
 GradGradGradGradGradGradGradGradGradGradGradGradGradGradGradGradGradGrad

                          Input orientation:                          
 ---------------------------------------------------------------------
 Center     Atomic      Atomic             Coordinates (Angstroms)
 Number     Number       Type             X           Y           Z
 ---------------------------------------------------------------------
      1          6           0       -4.204350    3.570030   -1.032370
      2          6           0       -4.228480    2.192510   -0.752710
      3          6           0       -3.088430    1.552630   -0.260770
      4          6           0       -1.892080    2.258900   -0.031820
      5          6           0       -1.879680    3.645230   -0.317000
      6          6           0       -3.023370    4.282110   -0.809470
      7          7           0       -0.766260    1.519530    0.476400
      8          6           0        0.485310    1.989230    0.772090
      9          7           0        1.428980    1.128380    1.248340
     10          8           0        0.774410    3.165100    0.617860
     11          6           0        2.772890    1.570050    1.578920
     12          6           0        3.624910    0.402650    2.090260
     13          6           0        5.037930    0.860970    2.439110
     14          1           0       -3.141310    0.490400   -0.055890
     15          1           0       -1.018510    4.271870   -0.176860
     16          1           0        1.182140    0.134470    1.377920
     17          1           0        2.717370    2.354320    2.365990
     18          1           0        3.250370    2.001010    0.671220
     19          1           0        3.684100   -0.384030    1.306780
     20          1           0        3.152160   -0.031430    2.998160
     21          1           0        5.540190    1.281100    1.541710
     22          1           0        5.629920   -0.004000    2.805610
     23          1           0        5.007320    1.634310    3.236030
     24          8           0       -5.281160    4.247300   -1.512230
     25          6           0       -6.528710    3.726220   -1.795880
     26          9           0       -7.341680    4.740640   -2.263080
     27          9           0       -6.429700    2.750830   -2.772520
     28          9           0       -7.096510    3.193000   -0.652080
     29          1           0       -5.120310    1.602220   -0.910080
     30          1           0       -2.990010    5.344080   -1.020430
 ---------------------------------------------------------------------
                    Distance matrix (angstroms):
                    1          2          3          4          5
     1  C    0.000000
     2  C    1.405828   0.000000
     3  C    2.431162   1.396841   0.000000
     4  C    2.840203   2.445988   1.408009   0.000000
     5  C    2.433413   2.795908   2.417274   1.415412   0.000000
     6  C    1.396945   2.412870   2.784846   2.444982   1.398631
     7  N    4.278014   3.735048   2.436594   1.439592   2.527407
     8  C    5.267629   4.958443   3.745536   2.524079   3.085714
     9  N    6.549634   6.094541   4.781673   3.734478   4.442078
    10  O    5.260730   5.277623   4.277100   2.890234   2.854590
    11  C    7.713665   7.405615   6.143276   4.983066   5.435742
    12  C    9.004467   8.541769   7.205465   6.195649   6.827132
    13  C   10.237672   9.890757   8.591011   7.488975   7.949942
    14  H    3.401130   2.136510   1.083100   2.165352   3.407762
    15  H    3.372544   3.867719   3.418461   2.199138   1.074212
    16  H    6.828385   6.168462   4.788972   3.993920   4.957109
    17  H    7.806216   7.615596   6.422608   5.196694   5.477020
    18  H    7.806209   7.615605   6.422619   5.196688   5.476993
    19  H    9.128738   8.572571   7.216303   6.314326   7.058842
    20  H    9.128742   8.572560   7.216290   6.314329   7.058862
    21  H   10.335432  10.075810   8.819056   7.659682   8.006147
    22  H   11.145252  10.708611   9.372055   8.351779   8.914127
    23  H   10.335430  10.075795   8.819039   7.659679   8.006160
    24  O    1.359588   2.430467   3.692623   4.198954   3.655288
    25  C    2.451529   2.954916   4.349320   5.173323   4.879255
    26  F    3.567606   4.297231   5.680034   6.390281   5.900898
    27  F    2.941325   3.039198   4.348409   5.323855   5.247115
    28  F    2.941320   3.039194   4.348407   5.323848   5.247105
    29  H    2.173986   1.081003   2.133682   3.409404   3.876508
    30  H    2.149888   3.396745   3.868057   3.420692   2.147961
                    6          7          8          9         10
     6  C    0.000000
     7  N    3.792078   0.000000
     8  C    4.479896   1.369116   0.000000
     9  N    5.831296   2.359654   1.363228   0.000000
    10  O    4.208101   2.258667   1.220670   2.230290   0.000000
    11  C    6.830542   3.707248   2.461648   1.452739   2.731619
    12  C    8.225465   4.809817   3.756580   2.461224   4.233727
    13  C    9.340344   6.162350   4.977778   3.809719   5.177216
    14  H    3.867668   2.642594   4.010538   4.795371   4.789658
    15  H    2.102323   2.840027   2.893514   4.231186   2.251906
    16  H    6.298723   2.554876   2.071892   1.032268   3.150977
    17  H    6.837837   4.050074   2.766930   2.100481   2.736497
    18  H    6.837812   4.050073   2.766924   2.100479   2.736481
    19  H    8.440470   4.911087   4.018770   2.715947   4.640822
    20  H    8.440488   4.911086   4.018774   2.715949   4.640833
    21  H    9.373829   6.400238   5.161935   4.124492   5.207265
    22  H   10.311109   6.975491   5.880066   4.621176   6.197211
    23  H    9.373841   6.400231   5.161932   4.124487   5.207270
    24  O    2.364889   5.637349   6.600695   7.897746   6.509867
    25  C    3.683670   6.575604   7.668643   8.907350   7.712105
    26  F    4.579414   7.817701   8.834268  10.114493   8.755173
    27  F    4.219179   6.644256   7.807795   8.975439   7.972797
    28  F    4.219171   6.644248   7.807773   8.975424   7.972760
    29  H    3.404275   4.570221   5.865360   6.912055   6.286885
    30  H    1.083235   4.670412   5.152281   6.515130   4.647882
                   11         12         13         14         15
    11  C    0.000000
    12  C    1.533046   0.000000
    13  C    2.524505   1.525903   0.000000
    14  H    6.230250   7.098971   8.559341   0.000000
    15  H    4.975672   6.455389   7.426843   4.338252   0.000000
    16  H    2.152156   2.558608   4.064609   4.568886   4.937437
    17  H    1.112493   2.169947   2.760514   6.607861   4.909163
    18  H    1.112490   2.169956   2.760525   6.607890   4.909112
    19  H    2.173199   1.111850   2.159873   7.014821   6.781824
    20  H    2.173206   1.111846   2.159871   7.014791   6.781860
    21  H    2.782593   2.177356   1.110901   8.862617   7.410448
    22  H    3.484971   2.167292   1.110382   9.239431   8.448657
    23  H    2.782592   2.177345   1.110888   8.862586   7.410477
    24  O    9.032751  10.347819  11.556987   4.562256   4.466990
    25  C   10.127098  11.368562  12.646421   4.997257   5.768992
    26  F   11.274668  12.571230  13.799173   6.370191   6.674919
    27  F   10.247777  11.412965  12.737315   4.827332   6.191283
    28  F   10.247750  11.412946  12.737286   4.827328   6.191274
    29  H    8.276398   9.323083  10.721771   2.425330   4.948677
    30  H    7.362808   8.823338   9.824180   4.950903   2.397511
                   16         17         18         19         20
    16  H    0.000000
    17  H    2.874186   0.000000
    18  H    2.874191   1.811398   0.000000
    19  H    2.556112   3.091125   2.506087   0.000000
    20  H    2.556106   2.506089   3.091134   1.807776   0.000000
    21  H    4.509344   3.130424   2.553292   2.504580   3.089768
    22  H    4.673352   3.773312   3.773320   2.485383   2.485382
    23  H    4.509334   2.553283   3.130430   3.089759   2.504574
    24  O    8.187954   9.088479   9.088469  10.477210  10.477215
    25  C    9.079145  10.231973  10.231976  11.437751  11.437744
    26  F   10.350323  11.327281  11.327277  12.671778  12.671779
    27  F    9.056026  10.499066  10.301715  11.347114  11.526221
    28  F    9.056023  10.301668  10.499042  11.526223  11.347089
    29  H    6.863681   8.528043   8.528061   9.293938   9.293918
    30  H    7.092176   7.278784   7.278746   9.097851   9.097880
                   21         22         23         24         25
    21  H    0.000000
    22  H    1.804710   0.000000
    23  H    1.810919   1.804703   0.000000
    24  O   11.628693  12.480744  11.628693   0.000000
    25  C   12.758388  13.524812  12.758377   1.381435   0.000000
    26  F   13.870379  14.712771  13.870375   2.247866   1.381392
    27  F   12.808238  13.569785  12.967448   2.268677   1.383840
    28  F   12.967431  13.569762  12.808185   2.268678   1.383835
    29  H   10.943521  11.487112  10.943498   2.717518   2.698075
    30  H    9.789621  10.841759   9.789644   2.587308   3.967517
                   26         27         28         29         30
    26  F    0.000000
    27  F    2.247350   0.000000
    28  F    2.247358   2.266366   0.000000
    29  H    4.076122   2.549998   2.550002   0.000000
    30  H    4.565671   4.650401   4.650395   4.307188   0.000000
 Stoichiometry    C11H12F3N2O2(1-)
 Framework group  C1[X(C11H12F3N2O2)]
 Deg. of freedom    84
 Full point group                 C1      NOp   1
 Largest Abelian subgroup         C1      NOp   1
 Largest concise Abelian subgroup C1      NOp   1
                         Standard orientation:                         
 ---------------------------------------------------------------------
 Center     Atomic      Atomic             Coordinates (Angstroms)
 Number     Number       Type             X           Y           Z
 ---------------------------------------------------------------------
      1          6           0       -2.479455    0.408282   -0.000014
      2          6           0       -2.075804   -0.938350    0.000002
      3          6           0       -0.718357   -1.267749   -0.000010
      4          6           0        0.277885   -0.272767   -0.000026
      5          6           0       -0.140423    1.079421   -0.000035
      6          6           0       -1.500640    1.404965   -0.000034
      7          7           0        1.651798   -0.702638   -0.000027
      8          6           0        2.777705    0.076344   -0.000000
      9          7           0        4.004264   -0.518587   -0.000018
     10          8           0        2.706022    1.294908    0.000035
     11          6           0        5.232724    0.256871    0.000015
     12          6           0        6.461426   -0.659928   -0.000010
     13          6           0        7.754945    0.149507    0.000030
     14          1           0       -0.441922   -2.314978    0.000009
     15          1           0        0.539947    1.910701   -0.000056
     16          1           0        4.062336   -1.549221   -0.000052
     17          1           0        5.258278    0.902351    0.905743
     18          1           0        5.258279    0.902427   -0.905655
     19          1           0        6.441001   -1.307016   -0.903929
     20          1           0        6.440995   -1.307096    0.903847
     21          1           0        7.809133    0.790872   -0.905406
     22          1           0        8.625391   -0.539892    0.000002
     23          1           0        7.809122    0.790787    0.905513
     24          8           0       -3.784261    0.790332   -0.000013
     25          6           0       -4.890091   -0.037618    0.000017
     26          9           0       -6.031572    0.740370    0.000006
     27          9           0       -4.893844   -0.831922   -1.133156
     28          9           0       -4.893819   -0.831884    1.133210
     29          1           0       -2.798633   -1.742145    0.000014
     30          1           0       -1.796830    2.446919   -0.000049
 ---------------------------------------------------------------------
 Rotational constants (GHZ):      2.0887523      0.1074133      0.1044288
 General basis read from cards:  (6D, 7F)
 There are   366 symmetry adapted cartesian basis functions of A   symmetry.
 There are   366 symmetry adapted basis functions of A   symmetry.
   366 basis functions,   624 primitive gaussians,   366 cartesian basis functions
    68 alpha electrons       68 beta electrons
       nuclear repulsion energy      1257.4790455852 Hartrees.
 NAtoms=   30 NActive=   30 NUniq=   30 SFac= 1.00D+00 NAtFMM=   60 NAOKFM=F Big=F
 Integral buffers will be    131072 words long.
 Raffenetti 2 integral format.
 Two-electron integral symmetry is turned on.
 ------------------------------------------------------------------------------
 Polarizable Continuum Model (PCM)
 =================================
 Model                : PCM (using non-symmetric T matrix).
 Atomic radii         : SMD-Coulomb.
 Polarization charges : Total charges.
 Charge compensation  : None.
 Solution method      : On-the-fly selection.
 Cavity type          : VdW (van der Waals Surface) (Alpha=1.000).
 Cavity algorithm     : GePol (No added spheres)
                        Default sphere list used, NSphG=   30.
                        Lebedev-Laikov grids with approx.  5.0 points / Ang**2.
                        Smoothing algorithm: York/Karplus (Gamma=1.0000).
                        Polarization charges: spherical gaussians, with
                                              point-specific exponents (IZeta= 3).
                        Self-potential: point-specific (ISelfS= 7).
                        Self-field    : sphere-specific E.n sum rule (ISelfD= 2).
 1st derivatives      : Analytical E(r).r(x)/FMM algorithm (CHGder, D1EAlg=3).
                        Cavity 1st derivative terms included.
 Solvent              : Water, Eps=  78.355300 Eps(inf)=   1.777849
 ------------------------------------------------------------------------------
 ------------------------------------------------------------------------------
 Atomic radii for non-electrostatic terms: SMD-CDS.
 ------------------------------------------------------------------------------
 Nuclear repulsion after PCM non-electrostatic terms =     1257.4890853987 Hartrees.
 One-electron integrals computed using PRISM.
 NBasis=   366 RedAO= T EigKep=  1.75D-06  NBF=   366
 NBsUse=   366 1.00D-06 EigRej= -1.00D+00 NBFU=   366
 ExpMin= 4.38D-02 ExpMax= 7.00D+03 ExpMxC= 1.05D+03 IAcc=3 IRadAn=         5 AccDes= 0.00D+00
 Harris functional with IExCor= 1009 and IRadAn=       5 diagonalized for initial guess.
 HarFok:  IExCor= 1009 AccDes= 0.00D+00 IRadAn=         5 IDoV= 1 UseB2=F ITyADJ=14
 ICtDFT=  3500011 ScaDFX=  1.000000  1.000000  1.000000  1.000000
 FoFCou: FMM=F IPFlag=           0 FMFlag=      100000 FMFlg1=           0
         NFxFlg=           0 DoJE=T BraDBF=F KetDBF=T FulRan=T
         wScrn=  0.000000 ICntrl=     500 IOpCl=  0 I1Cent=   200000004 NGrid=           0
         NMat0=    1 NMatS0=      1 NMatT0=    0 NMatD0=    1 NMtDS0=    0 NMtDT0=    0
 Petite list used in FoFCou.
 Requested convergence on RMS density matrix=1.00D-08 within 128 cycles.
 Requested convergence on MAX density matrix=1.00D-06.
 Requested convergence on             energy=1.00D-06.
 No special actions if energy rises.
 Inv3:  Mode=1 IEnd=    16993200.
 Iteration    1 A*A^-1 deviation from unit magnitude is 5.11D-15 for   1146.
 Iteration    1 A*A^-1 deviation from orthogonality  is 2.94D-15 for   1350    841.
 Iteration    1 A^-1*A deviation from unit magnitude is 5.11D-15 for   2372.
 Iteration    1 A^-1*A deviation from orthogonality  is 1.08D-10 for   1564   1541.
 Iteration    2 A*A^-1 deviation from unit magnitude is 7.33D-15 for    570.
 Iteration    2 A*A^-1 deviation from orthogonality  is 5.21D-15 for   1876    569.
 Iteration    2 A^-1*A deviation from unit magnitude is 1.11D-15 for    642.
 Iteration    2 A^-1*A deviation from orthogonality  is 3.53D-16 for   2161   1081.
 Error on total polarization charges =  0.06079
 SCF Done:  E(RM062X) =  -985.668473703     A.U. after   15 cycles
            NFock= 15  Conv=0.73D-08     -V/T= 2.0088
 SMD-CDS (non-electrostatic) energy       (kcal/mol) =       6.30
 (included in total energy above)

 **********************************************************************

            Population analysis using the SCF density.

 **********************************************************************

 Orbital symmetries:
       Occupied  (A) (A) (A) (A) (A) (A) (A) (A) (A) (A) (A) (A)
                 (A) (A) (A) (A) (A) (A) (A) (A) (A) (A) (A) (A)
                 (A) (A) (A) (A) (A) (A) (A) (A) (A) (A) (A) (A)
                 (A) (A) (A) (A) (A) (A) (A) (A) (A) (A) (A) (A)
                 (A) (A) (A) (A) (A) (A) (A) (A) (A) (A) (A) (A)
                 (A) (A) (A) (A) (A) (A) (A) (A)
       Virtual   (A) (A) (A) (A) (A) (A) (A) (A) (A) (A) (A) (A)
                 (A) (A) (A) (A) (A) (A) (A) (A) (A) (A) (A) (A)
                 (A) (A) (A) (A) (A) (A) (A) (A) (A) (A) (A) (A)
                 (A) (A) (A) (A) (A) (A) (A) (A) (A) (A) (A) (A)
                 (A) (A) (A) (A) (A) (A) (A) (A) (A) (A) (A) (A)
                 (A) (A) (A) (A) (A) (A) (A) (A) (A) (A) (A) (A)
                 (A) (A) (A) (A) (A) (A) (A) (A) (A) (A) (A) (A)
                 (A) (A) (A) (A) (A) (A) (A) (A) (A) (A) (A) (A)
                 (A) (A) (A) (A) (A) (A) (A) (A) (A) (A) (A) (A)
                 (A) (A) (A) (A) (A) (A) (A) (A) (A) (A) (A) (A)
                 (A) (A) (A) (A) (A) (A) (A) (A) (A) (A) (A) (A)
                 (A) (A) (A) (A) (A) (A) (A) (A) (A) (A) (A) (A)
                 (A) (A) (A) (A) (A) (A) (A) (A) (A) (A) (A) (A)
                 (A) (A) (A) (A) (A) (A) (A) (A) (A) (A) (A) (A)
                 (A) (A) (A) (A) (A) (A) (A) (A) (A) (A) (A) (A)
                 (A) (A) (A) (A) (A) (A) (A) (A) (A) (A) (A) (A)
                 (A) (A) (A) (A) (A) (A) (A) (A) (A) (A) (A) (A)
                 (A) (A) (A) (A) (A) (A) (A) (A) (A) (A) (A) (A)
                 (A) (A) (A) (A) (A) (A) (A) (A) (A) (A) (A) (A)
                 (A) (A) (A) (A) (A) (A) (A) (A) (A) (A) (A) (A)
                 (A) (A) (A) (A) (A) (A) (A) (A) (A) (A) (A) (A)
                 (A) (A) (A) (A) (A) (A) (A) (A) (A) (A) (A) (A)
                 (A) (A) (A) (A) (A) (A) (A) (A) (A) (A) (A) (A)
                 (A) (A) (A) (A) (A) (A) (A) (A) (A) (A) (A) (A)
                 (A) (A) (A) (A) (A) (A) (A) (A) (A) (A)
 The electronic state is 1-A.
 Alpha  occ. eigenvalues --  -25.32725 -25.32278 -25.32278 -19.72155 -19.58322
 Alpha  occ. eigenvalues --  -14.75802 -14.69750 -10.89169 -10.63977 -10.61913
 Alpha  occ. eigenvalues --  -10.58097 -10.57046 -10.55523 -10.55190 -10.54368
 Alpha  occ. eigenvalues --  -10.54104 -10.53875 -10.53211  -1.46983  -1.38713
 Alpha  occ. eigenvalues --   -1.38609  -1.23928  -1.15203  -1.00464  -0.97066
 Alpha  occ. eigenvalues --   -0.92613  -0.87213  -0.85769  -0.83956  -0.79822
 Alpha  occ. eigenvalues --   -0.75879  -0.73104  -0.71632  -0.71001  -0.68107
 Alpha  occ. eigenvalues --   -0.66768  -0.65297  -0.63247  -0.59241  -0.59005
 Alpha  occ. eigenvalues --   -0.58609  -0.56611  -0.55553  -0.55355  -0.54239
 Alpha  occ. eigenvalues --   -0.54190  -0.53356  -0.52712  -0.50997  -0.50551
 Alpha  occ. eigenvalues --   -0.49277  -0.49198  -0.48000  -0.47579  -0.45438
 Alpha  occ. eigenvalues --   -0.44650  -0.44391  -0.41972  -0.41162  -0.39849
 Alpha  occ. eigenvalues --   -0.38878  -0.38679  -0.34481  -0.32760  -0.30688
 Alpha  occ. eigenvalues --   -0.30122  -0.27314  -0.22178
 Alpha virt. eigenvalues --    0.02112   0.02129   0.02796   0.03122   0.03857
 Alpha virt. eigenvalues --    0.04080   0.04458   0.05049   0.05056   0.05446
 Alpha virt. eigenvalues --    0.06016   0.06416   0.07254   0.07715   0.07876
 Alpha virt. eigenvalues --    0.08308   0.09663   0.09991   0.10210   0.10289
 Alpha virt. eigenvalues --    0.10383   0.10638   0.12347   0.12559   0.12897
 Alpha virt. eigenvalues --    0.13265   0.14510   0.14702   0.14766   0.15425
 Alpha virt. eigenvalues --    0.15600   0.16795   0.16921   0.17075   0.17428
 Alpha virt. eigenvalues --    0.18264   0.18849   0.19345   0.19851   0.20628
 Alpha virt. eigenvalues --    0.20677   0.21327   0.21490   0.21768   0.22150
 Alpha virt. eigenvalues --    0.22916   0.23654   0.23881   0.24412   0.24709
 Alpha virt. eigenvalues --    0.24975   0.25098   0.25398   0.25729   0.26004
 Alpha virt. eigenvalues --    0.26695   0.27205   0.27428   0.27850   0.29042
 Alpha virt. eigenvalues --    0.29078   0.29685   0.29886   0.30518   0.30658
 Alpha virt. eigenvalues --    0.31529   0.31815   0.32004   0.32243   0.32690
 Alpha virt. eigenvalues --    0.33373   0.33739   0.33875   0.34638   0.34878
 Alpha virt. eigenvalues --    0.35474   0.36200   0.36221   0.36250   0.36484
 Alpha virt. eigenvalues --    0.37497   0.37769   0.38173   0.38944   0.39724
 Alpha virt. eigenvalues --    0.39792   0.40448   0.40567   0.41375   0.43112
 Alpha virt. eigenvalues --    0.43847   0.43935   0.44733   0.45487   0.47213
 Alpha virt. eigenvalues --    0.48550   0.49229   0.51392   0.53221   0.54698
 Alpha virt. eigenvalues --    0.56863   0.58038   0.58562   0.62821   0.65338
 Alpha virt. eigenvalues --    0.69272   0.70069   0.70455   0.71397   0.72140
 Alpha virt. eigenvalues --    0.74955   0.75847   0.76937   0.77131   0.77175
 Alpha virt. eigenvalues --    0.79734   0.80037   0.80703   0.82179   0.82283
 Alpha virt. eigenvalues --    0.83234   0.83278   0.84289   0.84343   0.85282
 Alpha virt. eigenvalues --    0.88530   0.89341   0.90132   0.90848   0.93771
 Alpha virt. eigenvalues --    0.98126   0.98976   0.99482   1.01188   1.01478
 Alpha virt. eigenvalues --    1.02375   1.04170   1.05271   1.05513   1.06082
 Alpha virt. eigenvalues --    1.06655   1.11017   1.11321   1.11998   1.12840
 Alpha virt. eigenvalues --    1.13439   1.14333   1.15231   1.15567   1.15865
 Alpha virt. eigenvalues --    1.17324   1.18691   1.19499   1.20454   1.22951
 Alpha virt. eigenvalues --    1.24822   1.26524   1.27798   1.28811   1.28951
 Alpha virt. eigenvalues --    1.30820   1.34995   1.35008   1.35608   1.37370
 Alpha virt. eigenvalues --    1.37898   1.41003   1.41722   1.42524   1.42997
 Alpha virt. eigenvalues --    1.45394   1.47584   1.48134   1.48960   1.50670
 Alpha virt. eigenvalues --    1.50873   1.51758   1.53418   1.54494   1.55962
 Alpha virt. eigenvalues --    1.56662   1.58773   1.61873   1.62373   1.62817
 Alpha virt. eigenvalues --    1.65349   1.66066   1.69310   1.69799   1.70007
 Alpha virt. eigenvalues --    1.71563   1.72160   1.74717   1.76509   1.78590
 Alpha virt. eigenvalues --    1.81032   1.83179   1.85507   1.86638   1.86714
 Alpha virt. eigenvalues --    1.87311   1.88164   1.88522   1.88575   1.90397
 Alpha virt. eigenvalues --    1.90707   1.92015   1.92858   1.93520   1.94290
 Alpha virt. eigenvalues --    1.94874   1.96351   1.98248   1.98604   1.99701
 Alpha virt. eigenvalues --    2.00021   2.00892   2.02966   2.03855   2.04362
 Alpha virt. eigenvalues --    2.04957   2.05416   2.06035   2.06067   2.08889
 Alpha virt. eigenvalues --    2.08995   2.09497   2.11551   2.11689   2.15268
 Alpha virt. eigenvalues --    2.16455   2.19135   2.21430   2.21818   2.22626
 Alpha virt. eigenvalues --    2.22752   2.25247   2.27439   2.29071   2.31067
 Alpha virt. eigenvalues --    2.32053   2.34718   2.37730   2.37977   2.38308
 Alpha virt. eigenvalues --    2.40954   2.41792   2.43238   2.45679   2.49039
 Alpha virt. eigenvalues --    2.54015   2.57436   2.59970   2.61665   2.66610
 Alpha virt. eigenvalues --    2.67093   2.67629   2.68233   2.72226   2.73609
 Alpha virt. eigenvalues --    2.76040   2.77806   2.78174   2.80414   2.80930
 Alpha virt. eigenvalues --    2.83848   2.86132   2.87817   2.92860   2.99967
 Alpha virt. eigenvalues --    3.03243   3.12286   3.14349   3.16254   3.22242
 Alpha virt. eigenvalues --    3.24761   3.29989   3.31216   3.38758   3.47144
 Alpha virt. eigenvalues --    4.18051   4.27217   4.30492   4.35521   4.41478
 Alpha virt. eigenvalues --    4.42795   4.44923   4.45135   4.52111   4.53584
 Alpha virt. eigenvalues --    4.57582   4.60111   4.65660   4.73023   4.88268
 Alpha virt. eigenvalues --    5.46670   6.09053   6.79914
          Condensed to atoms (all electrons):
               1          2          3          4          5          6
     1  C   12.290027   0.903803   1.088368  -3.206715  -1.273293  -3.083565
     2  C    0.903803  10.886156  -3.507870  -1.064177  -0.340399  -1.315963
     3  C    1.088368  -3.507870  14.816060  -0.029047  -1.478951  -1.961068
     4  C   -3.206715  -1.064177  -0.029047  10.974227   0.128170   0.375027
     5  C   -1.273293  -0.340399  -1.478951   0.128170   9.080390  -1.404160
     6  C   -3.083565  -1.315963  -1.961068   0.375027  -1.404160  13.607448
     7  N   -0.023968   0.109284  -0.053703   0.474497  -0.337745  -0.052970
     8  C   -0.876234  -0.208304  -1.388655  -0.681132   0.502785   0.303653
     9  N   -0.009787  -0.001387  -0.092817  -0.173530   0.046878   0.000942
    10  O   -0.002622   0.013149  -0.159494  -0.210789   0.221571   0.192315
    11  C   -0.052444  -0.010067  -0.177526  -0.505660   0.030893  -0.001162
    12  C    0.001686  -0.000932   0.008824   0.011994   0.006213   0.000952
    13  C   -0.000304   0.000057  -0.002643  -0.010941   0.000538  -0.000081
    14  H    0.034201  -0.068414   0.443871  -0.067156   0.028731  -0.044600
    15  H    0.066404  -0.014550   0.015894  -0.082548   0.376304  -0.062172
    16  H    0.000027  -0.000561   0.002219   0.019366  -0.002378   0.000331
    17  H   -0.000009  -0.000035  -0.000666  -0.004446   0.002252   0.000505
    18  H   -0.000008  -0.000035  -0.000666  -0.004442   0.002250   0.000504
    19  H   -0.000001  -0.000001   0.000115  -0.000654  -0.000179  -0.000011
    20  H   -0.000001  -0.000001   0.000115  -0.000654  -0.000179  -0.000011
    21  H   -0.000000   0.000000   0.000005   0.000020  -0.000041  -0.000003
    22  H   -0.000000  -0.000000  -0.000003  -0.000052   0.000007   0.000000
    23  H   -0.000000   0.000000   0.000005   0.000020  -0.000041  -0.000003
    24  O    0.098056   0.001651  -0.027837   0.029932   0.066470  -0.307222
    25  C    0.399018  -0.188873  -0.041315  -0.242832  -0.044867  -0.215749
    26  F   -0.040839   0.031923   0.010458   0.002301  -0.001953  -0.003892
    27  F    0.027084  -0.041984   0.027178   0.010101  -0.002615   0.016793
    28  F    0.027084  -0.041982   0.027179   0.010101  -0.002616   0.016790
    29  H   -0.032863   0.333295  -0.067886   0.063794  -0.007609   0.019901
    30  H   -0.041441   0.042227  -0.029446   0.027115  -0.058182   0.371494
               7          8          9         10         11         12
     1  C   -0.023968  -0.876234  -0.009787  -0.002622  -0.052444   0.001686
     2  C    0.109284  -0.208304  -0.001387   0.013149  -0.010067  -0.000932
     3  C   -0.053703  -1.388655  -0.092817  -0.159494  -0.177526   0.008824
     4  C    0.474497  -0.681132  -0.173530  -0.210789  -0.505660   0.011994
     5  C   -0.337745   0.502785   0.046878   0.221571   0.030893   0.006213
     6  C   -0.052970   0.303653   0.000942   0.192315  -0.001162   0.000952
     7  N    7.895512   0.299299  -0.351244  -0.133992  -0.122260   0.006771
     8  C    0.299299   6.940882   0.430940   0.419565  -0.644143   0.177814
     9  N   -0.351244   0.430940   7.765041  -0.250309   0.285738  -0.069022
    10  O   -0.133992   0.419565  -0.250309   8.825395  -0.101897   0.023127
    11  C   -0.122260  -0.644143   0.285738  -0.101897   7.265599  -0.477564
    12  C    0.006771   0.177814  -0.069022   0.023127  -0.477564   6.215904
    13  C   -0.003752  -0.060302  -0.007018  -0.004701   0.071001  -0.091873
    14  H    0.002593  -0.021099  -0.000142   0.000138  -0.000899   0.000032
    15  H   -0.004414   0.006093   0.000817  -0.005241   0.003713   0.000035
    16  H    0.026978   0.029976   0.245993   0.011197  -0.082655   0.003689
    17  H   -0.000810  -0.028299  -0.058796   0.003178   0.431087  -0.041900
    18  H   -0.000810  -0.028289  -0.058794   0.003178   0.431074  -0.041897
    19  H   -0.000079  -0.008707   0.005774  -0.000191  -0.071752   0.424939
    20  H   -0.000080  -0.008714   0.005774  -0.000191  -0.071740   0.424931
    21  H    0.000014  -0.000301   0.000354  -0.000052  -0.007693  -0.064909
    22  H    0.000006  -0.002501   0.000477   0.000006   0.026834  -0.088391
    23  H    0.000014  -0.000300   0.000354  -0.000052  -0.007693  -0.064908
    24  O   -0.000108   0.005067  -0.000005   0.000048   0.000059  -0.000000
    25  C   -0.001133  -0.025739  -0.000067   0.000027  -0.000458   0.000005
    26  F    0.000008   0.000080   0.000000  -0.000000   0.000000   0.000000
    27  F   -0.000017   0.000035  -0.000000  -0.000000  -0.000000   0.000000
    28  F   -0.000017   0.000035  -0.000000  -0.000000  -0.000000   0.000000
    29  H    0.000974   0.005173   0.000018  -0.000003   0.000038  -0.000000
    30  H   -0.000942  -0.001706  -0.000017   0.000311  -0.000037   0.000001
              13         14         15         16         17         18
     1  C   -0.000304   0.034201   0.066404   0.000027  -0.000009  -0.000008
     2  C    0.000057  -0.068414  -0.014550  -0.000561  -0.000035  -0.000035
     3  C   -0.002643   0.443871   0.015894   0.002219  -0.000666  -0.000666
     4  C   -0.010941  -0.067156  -0.082548   0.019366  -0.004446  -0.004442
     5  C    0.000538   0.028731   0.376304  -0.002378   0.002252   0.002250
     6  C   -0.000081  -0.044600  -0.062172   0.000331   0.000505   0.000504
     7  N   -0.003752   0.002593  -0.004414   0.026978  -0.000810  -0.000810
     8  C   -0.060302  -0.021099   0.006093   0.029976  -0.028299  -0.028289
     9  N   -0.007018  -0.000142   0.000817   0.245993  -0.058796  -0.058794
    10  O   -0.004701   0.000138  -0.005241   0.011197   0.003178   0.003178
    11  C    0.071001  -0.000899   0.003713  -0.082655   0.431087   0.431074
    12  C   -0.091873   0.000032   0.000035   0.003689  -0.041900  -0.041897
    13  C    5.659784  -0.000000  -0.000002  -0.004263   0.003115   0.003113
    14  H   -0.000000   0.457660  -0.000108   0.000002  -0.000000  -0.000000
    15  H   -0.000002  -0.000108   0.445898   0.000001  -0.000000  -0.000000
    16  H   -0.004263   0.000002   0.000001   0.281701   0.002168   0.002168
    17  H    0.003115  -0.000000  -0.000000   0.002168   0.518941  -0.043004
    18  H    0.003113  -0.000000  -0.000000   0.002168  -0.043004   0.518937
    19  H   -0.034602  -0.000000  -0.000000   0.000467   0.003873  -0.005699
    20  H   -0.034597  -0.000000  -0.000000   0.000467  -0.005699   0.003873
    21  H    0.416692  -0.000000   0.000000  -0.000000  -0.000325   0.002679
    22  H    0.414301  -0.000000   0.000000  -0.000003  -0.000060  -0.000060
    23  H    0.416691  -0.000000   0.000000  -0.000000   0.002679  -0.000325
    24  O    0.000000  -0.000637  -0.000543  -0.000000  -0.000000  -0.000000
    25  C   -0.000001   0.000796   0.000529   0.000000  -0.000000  -0.000000
    26  F    0.000000  -0.000000  -0.000000  -0.000000   0.000000   0.000000
    27  F   -0.000000   0.000028   0.000001   0.000000  -0.000000   0.000000
    28  F   -0.000000   0.000028   0.000001   0.000000   0.000000  -0.000000
    29  H    0.000000  -0.003724   0.000012  -0.000000  -0.000000  -0.000000
    30  H   -0.000000   0.000012  -0.004223   0.000000  -0.000000  -0.000000
              19         20         21         22         23         24
     1  C   -0.000001  -0.000001  -0.000000  -0.000000  -0.000000   0.098056
     2  C   -0.000001  -0.000001   0.000000  -0.000000   0.000000   0.001651
     3  C    0.000115   0.000115   0.000005  -0.000003   0.000005  -0.027837
     4  C   -0.000654  -0.000654   0.000020  -0.000052   0.000020   0.029932
     5  C   -0.000179  -0.000179  -0.000041   0.000007  -0.000041   0.066470
     6  C   -0.000011  -0.000011  -0.000003   0.000000  -0.000003  -0.307222
     7  N   -0.000079  -0.000080   0.000014   0.000006   0.000014  -0.000108
     8  C   -0.008707  -0.008714  -0.000301  -0.002501  -0.000300   0.005067
     9  N    0.005774   0.005774   0.000354   0.000477   0.000354  -0.000005
    10  O   -0.000191  -0.000191  -0.000052   0.000006  -0.000052   0.000048
    11  C   -0.071752  -0.071740  -0.007693   0.026834  -0.007693   0.000059
    12  C    0.424939   0.424931  -0.064909  -0.088391  -0.064908  -0.000000
    13  C   -0.034602  -0.034597   0.416692   0.414301   0.416691   0.000000
    14  H   -0.000000  -0.000000  -0.000000  -0.000000  -0.000000  -0.000637
    15  H   -0.000000  -0.000000   0.000000   0.000000   0.000000  -0.000543
    16  H    0.000467   0.000467  -0.000000  -0.000003  -0.000000  -0.000000
    17  H    0.003873  -0.005699  -0.000325  -0.000060   0.002679  -0.000000
    18  H   -0.005699   0.003873   0.002679  -0.000060  -0.000325  -0.000000
    19  H    0.495183  -0.031090  -0.004580  -0.002997   0.003817   0.000000
    20  H   -0.031090   0.495180   0.003817  -0.002996  -0.004580   0.000000
    21  H   -0.004580   0.003817   0.489055  -0.024073  -0.028511   0.000000
    22  H   -0.002997  -0.002996  -0.024073   0.484766  -0.024073   0.000000
    23  H    0.003817  -0.004580  -0.028511  -0.024073   0.489052   0.000000
    24  O    0.000000   0.000000   0.000000   0.000000   0.000000   8.542268
    25  C   -0.000000  -0.000000  -0.000000  -0.000000  -0.000000   0.226830
    26  F    0.000000   0.000000   0.000000   0.000000   0.000000  -0.013100
    27  F   -0.000000  -0.000000  -0.000000  -0.000000   0.000000  -0.071567
    28  F   -0.000000  -0.000000   0.000000  -0.000000  -0.000000  -0.071568
    29  H    0.000000   0.000000   0.000000  -0.000000   0.000000  -0.010112
    30  H    0.000000   0.000000   0.000000  -0.000000   0.000000  -0.001731
              25         26         27         28         29         30
     1  C    0.399018  -0.040839   0.027084   0.027084  -0.032863  -0.041441
     2  C   -0.188873   0.031923  -0.041984  -0.041982   0.333295   0.042227
     3  C   -0.041315   0.010458   0.027178   0.027179  -0.067886  -0.029446
     4  C   -0.242832   0.002301   0.010101   0.010101   0.063794   0.027115
     5  C   -0.044867  -0.001953  -0.002615  -0.002616  -0.007609  -0.058182
     6  C   -0.215749  -0.003892   0.016793   0.016790   0.019901   0.371494
     7  N   -0.001133   0.000008  -0.000017  -0.000017   0.000974  -0.000942
     8  C   -0.025739   0.000080   0.000035   0.000035   0.005173  -0.001706
     9  N   -0.000067   0.000000  -0.000000  -0.000000   0.000018  -0.000017
    10  O    0.000027  -0.000000  -0.000000  -0.000000  -0.000003   0.000311
    11  C   -0.000458   0.000000  -0.000000  -0.000000   0.000038  -0.000037
    12  C    0.000005   0.000000   0.000000   0.000000  -0.000000   0.000001
    13  C   -0.000001   0.000000  -0.000000  -0.000000   0.000000  -0.000000
    14  H    0.000796  -0.000000   0.000028   0.000028  -0.003724   0.000012
    15  H    0.000529  -0.000000   0.000001   0.000001   0.000012  -0.004223
    16  H    0.000000  -0.000000   0.000000   0.000000  -0.000000   0.000000
    17  H   -0.000000   0.000000  -0.000000   0.000000  -0.000000  -0.000000
    18  H   -0.000000   0.000000   0.000000  -0.000000  -0.000000  -0.000000
    19  H   -0.000000   0.000000  -0.000000  -0.000000   0.000000   0.000000
    20  H   -0.000000   0.000000  -0.000000  -0.000000   0.000000   0.000000
    21  H   -0.000000   0.000000  -0.000000   0.000000   0.000000   0.000000
    22  H   -0.000000   0.000000  -0.000000  -0.000000  -0.000000  -0.000000
    23  H   -0.000000   0.000000   0.000000  -0.000000   0.000000   0.000000
    24  O    0.226830  -0.013100  -0.071567  -0.071568  -0.010112  -0.001731
    25  C    4.263034   0.224665   0.215312   0.215313  -0.000150  -0.002240
    26  F    0.224665   9.191383  -0.041785  -0.041784   0.000557  -0.000011
    27  F    0.215312  -0.041785   9.231477  -0.050280  -0.000628   0.000025
    28  F    0.215313  -0.041784  -0.050280   9.231470  -0.000629   0.000025
    29  H   -0.000150   0.000557  -0.000628  -0.000629   0.451219  -0.000112
    30  H   -0.002240  -0.000011   0.000025   0.000025  -0.000112   0.449544
 Mulliken charges:
               1
     1  C   -0.291664
     2  C    0.483990
     3  C   -1.420697
     4  C    0.158110
     5  C    0.461754
     6  C   -0.454024
     7  N   -0.727906
     8  C    0.863029
     9  N   -0.716164
    10  O   -0.843673
    11  C   -0.210385
    12  C   -0.365519
    13  C   -0.730213
    14  H    0.238687
    15  H    0.258101
    16  H    0.463110
    17  H    0.216251
    18  H    0.216253
    19  H    0.226375
    20  H    0.226377
    21  H    0.217852
    22  H    0.218811
    23  H    0.217854
    24  O   -0.465951
    25  C    1.217895
    26  F   -0.318012
    27  F   -0.319158
    28  F   -0.319151
    29  H    0.248734
    30  H    0.249334
 Sum of Mulliken charges =  -1.00000
 Mulliken charges with hydrogens summed into heavy atoms:
               1
     1  C   -0.291664
     2  C    0.732724
     3  C   -1.182009
     4  C    0.158110
     5  C    0.719855
     6  C   -0.204690
     7  N   -0.727906
     8  C    0.863029
     9  N   -0.253054
    10  O   -0.843673
    11  C    0.222119
    12  C    0.087233
    13  C   -0.075695
    24  O   -0.465951
    25  C    1.217895
    26  F   -0.318012
    27  F   -0.319158
    28  F   -0.319151
 Electronic spatial extent (au):  <R**2>=           9563.5072
 Charge=             -1.0000 electrons
 Dipole moment (field-independent basis, Debye):
    X=             -2.6501    Y=             -2.3341    Z=              0.0000  Tot=              3.5315
 Quadrupole moment (field-independent basis, Debye-Ang):
   XX=           -124.8688   YY=           -111.1613   ZZ=           -112.0508
   XY=             -8.4275   XZ=             -0.0005   YZ=             -0.0005
 Traceless Quadrupole moment (field-independent basis, Debye-Ang):
   XX=             -8.8418   YY=              4.8657   ZZ=              3.9761
   XY=             -8.4275   XZ=             -0.0005   YZ=             -0.0005
 Octapole moment (field-independent basis, Debye-Ang**2):
  XXX=             43.1314  YYY=            -10.2391  ZZZ=              0.0010  XYY=            -53.4375
  XXY=            -56.9518  XXZ=              0.0010  XZZ=            -28.7576  YZZ=              2.5334
  YYZ=             -0.0003  XYZ=             -0.0005
 Hexadecapole moment (field-independent basis, Debye-Ang**3):
 XXXX=         -11212.7218 YYYY=           -580.5162 ZZZZ=           -217.0542 XXXY=           -153.5894
 XXXZ=             -0.0109 YYYX=            -20.3464 YYYZ=             -0.0020 ZZZX=             -0.0007
 ZZZY=             -0.0000 XXYY=          -2006.1955 XXZZ=          -1923.9144 YYZZ=           -145.2941
 XXYZ=             -0.0038 YYXZ=             -0.0027 ZZXY=              5.3249
 N-N= 1.257489085399D+03 E-N=-4.843238468961D+03  KE= 9.770842194524D+02
 D1PCM: PCM CHGder 1st derivatives, ID1Alg=3 FixD1E=F DoIter=F DoCFld=F I1PDM=0.
 Calling FoFJK, ICntrl=      2127 FMM=F ISym2X=0 I1Cent= 0 IOpClX= 0 NMat=1 NMatS=1 NMatT=0.
 ***** Axes restored to original set *****
 -------------------------------------------------------------------
 Center     Atomic                   Forces (Hartrees/Bohr)
 Number     Number              X              Y              Z
 -------------------------------------------------------------------
      1        6           0.025494427   -0.038485084    0.016042713
      2        6           0.005512693    0.005796259    0.000523875
      3        6          -0.005065314    0.008871764   -0.003441537
      4        6           0.056509457   -0.006750413    0.019179863
      5        6          -0.018725372    0.001742176   -0.006253300
      6        6          -0.006605373   -0.002751275   -0.001503316
      7        7          -0.015229510   -0.025198595    0.000464225
      8        6          -0.063886931   -0.025672720   -0.014741350
      9        7          -0.005300767   -0.029761549    0.004537655
     10        8           0.035623288    0.069212726   -0.003225474
     11        6           0.002495407    0.001597685    0.000455677
     12        6          -0.004551218   -0.002929040   -0.000825281
     13        6           0.005177111    0.000047823    0.001612018
     14        1           0.001910966   -0.001821573    0.000980310
     15        1           0.006456703   -0.002705442    0.002594874
     16        1           0.003838156    0.016698973   -0.002274224
     17        1           0.002952672   -0.004695592   -0.008325568
     18        1          -0.002680293   -0.000961075    0.009588582
     19        1          -0.003087946    0.005517904    0.007665554
     20        1           0.002299243    0.001946016   -0.009467261
     21        1          -0.002909447   -0.002920016    0.009365137
     22        1          -0.003311567    0.009786595   -0.003081547
     23        1           0.002415930   -0.006444805   -0.007561654
     24        8          -0.059048895    0.029341835   -0.024687147
     25        6           0.018636827   -0.000050039    0.005867069
     26        9           0.030042620   -0.038288348    0.017433487
     27        9          -0.013234687    0.026030766    0.030683804
     28        9           0.008937262    0.011328699   -0.039824133
     29        1          -0.003322746   -0.001182623   -0.000798075
     30        1          -0.001342696    0.002698971   -0.000984977
 -------------------------------------------------------------------
 Cartesian Forces:  Max     0.069212726 RMS     0.018923253

 GradGradGradGradGradGradGradGradGradGradGradGradGradGradGradGradGradGrad
 Berny optimization.
 FormGI is forming the generalized inverse of G from B-inverse, IUseBI=4.
 Internal  Forces:  Max     0.075517555 RMS     0.013149282
 Search for a local minimum.
 Step number   1 out of a maximum of  151
 All quantities printed in internal units (Hartrees-Bohrs-Radians)
 Mixed Optimization -- RFO/linear search
 Second derivative matrix not updated -- first step.
 ITU=  0
     Eigenvalues ---    0.00329   0.00423   0.00994   0.01168   0.01468
     Eigenvalues ---    0.01797   0.01937   0.01951   0.01990   0.02040
     Eigenvalues ---    0.02062   0.02070   0.02100   0.02101   0.02106
     Eigenvalues ---    0.02118   0.02152   0.02178   0.02226   0.03755
     Eigenvalues ---    0.04435   0.04933   0.05553   0.05673   0.05783
     Eigenvalues ---    0.08033   0.09179   0.11975   0.12669   0.15867
     Eigenvalues ---    0.16000   0.16000   0.16000   0.16000   0.16000
     Eigenvalues ---    0.16000   0.16000   0.16000   0.16195   0.21964
     Eigenvalues ---    0.22000   0.22000   0.22004   0.22960   0.24000
     Eigenvalues ---    0.25000   0.25000   0.25000   0.25000   0.25000
     Eigenvalues ---    0.25000   0.25000   0.25000   0.25000   0.29144
     Eigenvalues ---    0.29805   0.32337   0.32338   0.32405   0.32405
     Eigenvalues ---    0.32505   0.32506   0.32560   0.35606   0.35622
     Eigenvalues ---    0.35873   0.36703   0.37888   0.39641   0.40591
     Eigenvalues ---    0.41361   0.42437   0.43927   0.44836   0.45797
     Eigenvalues ---    0.46023   0.48407   0.48408   0.48841   0.48849
     Eigenvalues ---    0.51147   0.52300   0.53031   0.95087
 RFO step:  Lambda=-5.11815161D-02 EMin= 3.28814808D-03
 Linear search not attempted -- first point.
 Maximum step size (   0.300) exceeded in Quadratic search.
    -- Step size scaled by   0.848
 Iteration  1 RMS(Cart)=  0.07631685 RMS(Int)=  0.00099950
 Iteration  2 RMS(Cart)=  0.00225724 RMS(Int)=  0.00014517
 Iteration  3 RMS(Cart)=  0.00000154 RMS(Int)=  0.00014517
 Iteration  4 RMS(Cart)=  0.00000000 RMS(Int)=  0.00014517
 Variable       Old X    -DE/DX   Delta X   Delta X   Delta X     New X
                                 (Linear)    (Quad)   (Total)
    R1        2.65663  -0.00970   0.00000  -0.01697  -0.01697   2.63966
    R2        2.63984  -0.00886   0.00000  -0.01497  -0.01497   2.62488
    R3        2.56925   0.02946   0.00000   0.04294   0.04294   2.61219
    R4        2.63965  -0.00514   0.00000  -0.00864  -0.00864   2.63101
    R5        2.04280   0.00350   0.00000   0.00725   0.00725   2.05005
    R6        2.66075  -0.00067   0.00000  -0.00083  -0.00083   2.65992
    R7        2.04676   0.00188   0.00000   0.00391   0.00391   2.05067
    R8        2.67474  -0.00118   0.00000  -0.00160  -0.00160   2.67314
    R9        2.72044  -0.04488   0.00000  -0.08501  -0.08501   2.63543
   R10        2.64303  -0.00252   0.00000  -0.00406  -0.00406   2.63897
   R11        2.02997   0.00394   0.00000   0.00798   0.00798   2.03794
   R12        2.04702   0.00280   0.00000   0.00582   0.00582   2.05284
   R13        2.58725  -0.02099   0.00000  -0.03163  -0.03163   2.55563
   R14        2.57613   0.00639   0.00000   0.00943   0.00943   2.58556
   R15        2.30673   0.07552   0.00000   0.06389   0.06389   2.37062
   R16        2.74528  -0.00094   0.00000  -0.00185  -0.00185   2.74342
   R17        1.95070  -0.01728   0.00000  -0.03081  -0.03081   1.91989
   R18        2.89704  -0.00679   0.00000  -0.01680  -0.01680   2.88023
   R19        2.10231  -0.00935   0.00000  -0.02116  -0.02116   2.08115
   R20        2.10230  -0.00935   0.00000  -0.02115  -0.02115   2.08115
   R21        2.88354   0.00149   0.00000   0.00363   0.00363   2.88716
   R22        2.10109  -0.00947   0.00000  -0.02140  -0.02140   2.07969
   R23        2.10108  -0.00947   0.00000  -0.02139  -0.02139   2.07969
   R24        2.09930  -0.00998   0.00000  -0.02250  -0.02250   2.07680
   R25        2.09832  -0.01041   0.00000  -0.02342  -0.02342   2.07490
   R26        2.09927  -0.00998   0.00000  -0.02248  -0.02248   2.07680
   R27        2.61053  -0.04261   0.00000  -0.06695  -0.06695   2.54359
   R28        2.61045  -0.05170   0.00000  -0.08121  -0.08121   2.52924
   R29        2.61508  -0.04095   0.00000  -0.06486  -0.06486   2.55022
   R30        2.61507  -0.04095   0.00000  -0.06485  -0.06485   2.55022
    A1        2.07401   0.00467   0.00000   0.01178   0.01178   2.08580
    A2        2.14686   0.00531   0.00000   0.01563   0.01563   2.16249
    A3        2.06231  -0.00998   0.00000  -0.02741  -0.02741   2.03490
    A4        2.10008  -0.00240   0.00000  -0.00867  -0.00867   2.09141
    A5        2.11795   0.00029   0.00000   0.00067   0.00067   2.11862
    A6        2.06515   0.00211   0.00000   0.00800   0.00800   2.07315
    A7        2.11877   0.00351   0.00000   0.01125   0.01125   2.13002
    A8        2.06694   0.00040   0.00000   0.00300   0.00300   2.06993
    A9        2.09748  -0.00390   0.00000  -0.01425  -0.01425   2.08323
   A10        2.05554  -0.00563   0.00000  -0.01455  -0.01456   2.04099
   A11        2.05360  -0.00719   0.00000  -0.02090  -0.02089   2.03270
   A12        2.17405   0.01282   0.00000   0.03545   0.03545   2.20950
   A13        2.10573   0.00199   0.00000   0.00728   0.00728   2.11301
   A14        2.15568  -0.00743   0.00000  -0.02949  -0.02949   2.12619
   A15        2.02178   0.00544   0.00000   0.02220   0.02221   2.04398
   A16        2.11224  -0.00214   0.00000  -0.00709  -0.00709   2.10514
   A17        2.08828  -0.00046   0.00000  -0.00261  -0.00261   2.08567
   A18        2.08267   0.00260   0.00000   0.00970   0.00970   2.09237
   A19        2.23311  -0.03468   0.00000  -0.09763  -0.09763   2.13548
   A20        2.08473  -0.03470   0.00000  -0.09768  -0.09768   1.98705
   A21        2.11729   0.03945   0.00000   0.11103   0.11103   2.22832
   A22        2.08116  -0.00474   0.00000  -0.01335  -0.01335   2.06781
   A23        2.12691   0.00133   0.00000   0.00414   0.00414   2.13105
   A24        2.07869  -0.00097   0.00000  -0.00331  -0.00331   2.07538
   A25        2.07759  -0.00035   0.00000  -0.00083  -0.00083   2.07676
   A26        1.93748  -0.00352   0.00000  -0.00877  -0.00875   1.92873
   A27        1.90620   0.00212   0.00000   0.01006   0.01006   1.91626
   A28        1.90620   0.00212   0.00000   0.01006   0.01006   1.91626
   A29        1.90560   0.00087   0.00000   0.00181   0.00183   1.90743
   A30        1.90562   0.00087   0.00000   0.00180   0.00182   1.90743
   A31        1.90242  -0.00247   0.00000  -0.01519  -0.01522   1.88720
   A32        1.94141  -0.00065   0.00000  -0.00005  -0.00005   1.94136
   A33        1.91064  -0.00045   0.00000  -0.00357  -0.00359   1.90705
   A34        1.91065  -0.00045   0.00000  -0.00358  -0.00360   1.90705
   A35        1.90109   0.00150   0.00000   0.00905   0.00905   1.91014
   A36        1.90109   0.00150   0.00000   0.00905   0.00905   1.91014
   A37        1.89844  -0.00147   0.00000  -0.01110  -0.01116   1.88728
   A38        1.92579   0.00198   0.00000   0.00756   0.00751   1.93330
   A39        1.91260   0.00340   0.00000   0.01446   0.01438   1.92698
   A40        1.92579   0.00198   0.00000   0.00756   0.00752   1.93330
   A41        1.89673  -0.00247   0.00000  -0.00914  -0.00921   1.88752
   A42        1.90571  -0.00258   0.00000  -0.01188  -0.01189   1.89382
   A43        1.89673  -0.00247   0.00000  -0.00914  -0.00921   1.88752
   A44        2.21407  -0.02630   0.00000  -0.07402  -0.07402   2.14006
   A45        1.90067  -0.00551   0.00000  -0.01685  -0.01682   1.88385
   A46        1.92428   0.01672   0.00000   0.04775   0.04718   1.97146
   A47        1.92428   0.01672   0.00000   0.04775   0.04717   1.97146
   A48        1.89760  -0.00680   0.00000  -0.02047  -0.02044   1.87716
   A49        1.89761  -0.00680   0.00000  -0.02048  -0.02045   1.87716
   A50        1.91888  -0.01492   0.00000  -0.03942  -0.04044   1.87844
    D1       -0.00001   0.00000   0.00000   0.00000   0.00000  -0.00000
    D2       -3.14159  -0.00000   0.00000  -0.00000  -0.00000  -3.14159
    D3        3.14158   0.00000   0.00000   0.00000   0.00000   3.14159
    D4        0.00000   0.00000   0.00000   0.00000   0.00000   0.00000
    D5       -0.00000  -0.00000   0.00000  -0.00000  -0.00000  -0.00000
    D6        3.14159   0.00000   0.00000   0.00000   0.00000   3.14159
    D7        3.14159  -0.00000   0.00000  -0.00000  -0.00000   3.14159
    D8       -0.00000  -0.00000   0.00000  -0.00000  -0.00000  -0.00000
    D9        0.00001   0.00000   0.00000   0.00000   0.00000   0.00002
   D10       -3.14158   0.00000   0.00000   0.00000   0.00000  -3.14158
   D11        0.00001  -0.00000   0.00000  -0.00000  -0.00000   0.00001
   D12        3.14159   0.00000   0.00000   0.00000   0.00000   3.14159
   D13       -3.14159   0.00000   0.00000   0.00000   0.00000  -3.14159
   D14       -0.00002   0.00000   0.00000   0.00000   0.00000  -0.00001
   D15       -0.00000  -0.00000   0.00000  -0.00000  -0.00000  -0.00000
   D16        3.14159   0.00000   0.00000   0.00000   0.00000   3.14159
   D17       -3.14158  -0.00000   0.00000  -0.00000  -0.00000  -3.14158
   D18        0.00001  -0.00000   0.00000  -0.00000  -0.00000   0.00001
   D19       -0.00000   0.00000   0.00000   0.00000   0.00000  -0.00000
   D20       -3.14158  -0.00000   0.00000  -0.00000  -0.00000  -3.14158
   D21        3.14159  -0.00000   0.00000  -0.00000  -0.00000   3.14159
   D22        0.00001  -0.00000   0.00000  -0.00000  -0.00000   0.00001
   D23       -3.14155   0.00000   0.00000   0.00001   0.00001  -3.14155
   D24        0.00004   0.00000   0.00000   0.00001   0.00001   0.00004
   D25        0.00001  -0.00000   0.00000  -0.00000  -0.00000   0.00001
   D26       -3.14159  -0.00000   0.00000  -0.00000  -0.00000  -3.14159
   D27        3.14159   0.00000   0.00000   0.00000   0.00000   3.14159
   D28       -0.00000  -0.00000   0.00000   0.00000   0.00000  -0.00000
   D29       -3.14158   0.00000   0.00000   0.00000   0.00000  -3.14158
   D30        0.00000   0.00000   0.00000   0.00001   0.00001   0.00001
   D31       -3.14159   0.00000   0.00000   0.00000   0.00000  -3.14158
   D32        0.00000   0.00000   0.00000   0.00000   0.00000   0.00000
   D33        0.00001  -0.00000   0.00000  -0.00000  -0.00000   0.00000
   D34       -3.14159  -0.00000   0.00000  -0.00000  -0.00000  -3.14159
   D35        3.14159   0.00000   0.00000   0.00000   0.00000  -3.14159
   D36        1.03953  -0.00024   0.00000  -0.00326  -0.00324   1.03629
   D37       -1.03951   0.00024   0.00000   0.00325   0.00324  -1.03628
   D38        0.00000   0.00000   0.00000   0.00000   0.00000   0.00000
   D39       -2.10206  -0.00024   0.00000  -0.00326  -0.00324  -2.10530
   D40        2.10208   0.00024   0.00000   0.00325   0.00324   2.10532
   D41       -3.14159  -0.00000   0.00000  -0.00000  -0.00000  -3.14159
   D42        1.03976  -0.00117   0.00000  -0.00892  -0.00891   1.03085
   D43       -1.03974   0.00117   0.00000   0.00892   0.00890  -1.03084
   D44       -1.03917   0.00098   0.00000   0.00815   0.00815  -1.03102
   D45       -3.14100  -0.00018   0.00000  -0.00077  -0.00076   3.14142
   D46        1.06268   0.00215   0.00000   0.01706   0.01705   1.07973
   D47        1.03916  -0.00098   0.00000  -0.00814  -0.00814   1.03102
   D48       -1.06267  -0.00215   0.00000  -0.01706  -0.01705  -1.07972
   D49        3.14101   0.00018   0.00000   0.00077   0.00076  -3.14142
   D50       -1.05372   0.00032   0.00000   0.00249   0.00251  -1.05121
   D51       -3.14158  -0.00000   0.00000  -0.00000  -0.00000  -3.14159
   D52        1.05373  -0.00032   0.00000  -0.00250  -0.00252   1.05122
   D53        1.05374   0.00034   0.00000   0.00396   0.00397   1.05771
   D54       -1.03412   0.00002   0.00000   0.00146   0.00146  -1.03266
   D55       -3.12199  -0.00030   0.00000  -0.00103  -0.00105  -3.12304
   D56        3.12198   0.00030   0.00000   0.00104   0.00106   3.12304
   D57        1.03412  -0.00002   0.00000  -0.00146  -0.00146   1.03266
   D58       -1.05375  -0.00034   0.00000  -0.00396  -0.00397  -1.05772
   D59       -3.14159  -0.00000   0.00000  -0.00001  -0.00001   3.14159
   D60       -1.06099  -0.00168   0.00000  -0.00680  -0.00759  -1.06858
   D61        1.06097   0.00168   0.00000   0.00680   0.00759   1.06856
         Item               Value     Threshold  Converged?
 Maximum Force            0.075518     0.000450     NO 
 RMS     Force            0.013149     0.000300     NO 
 Maximum Displacement     0.240430     0.001800     NO 
 RMS     Displacement     0.077477     0.001200     NO 
 Predicted change in Energy=-2.732930D-02
 GradGradGradGradGradGradGradGradGradGradGradGradGradGradGradGradGradGrad

                          Input orientation:                          
 ---------------------------------------------------------------------
 Center     Atomic      Atomic             Coordinates (Angstroms)
 Number     Number       Type             X           Y           Z
 ---------------------------------------------------------------------
      1          6           0       -4.154146    3.548815   -1.012164
      2          6           0       -4.174002    2.180286   -0.733031
      3          6           0       -3.029623    1.556738   -0.243131
      4          6           0       -1.833958    2.263386   -0.014479
      5          6           0       -1.841924    3.647641   -0.305639
      6          6           0       -2.989199    4.274087   -0.797061
      7          7           0       -0.759166    1.523512    0.477799
      8          6           0        0.444320    2.081969    0.739865
      9          7           0        1.372817    1.197159    1.216337
     10          8           0        0.780500    3.281903    0.595439
     11          6           0        2.723979    1.605119    1.556232
     12          6           0        3.531092    0.413733    2.058439
     13          6           0        4.957125    0.824900    2.421219
     14          1           0       -3.067318    0.492754   -0.033109
     15          1           0       -0.969363    4.264411   -0.159861
     16          1           0        1.107615    0.223729    1.335865
     17          1           0        2.694005    2.379874    2.338354
     18          1           0        3.218770    2.032036    0.669791
     19          1           0        3.560667   -0.360306    1.276681
     20          1           0        3.036249   -0.012706    2.944122
     21          1           0        5.478514    1.237015    1.545942
     22          1           0        5.525939   -0.042635    2.780960
     23          1           0        4.953587    1.584953    3.215003
     24          8           0       -5.239596    4.251996   -1.500144
     25          6           0       -6.426986    3.670373   -1.752243
     26          9           0       -7.258878    4.613410   -2.210502
     27          9           0       -6.350876    2.703748   -2.690885
     28          9           0       -6.991787    3.128769   -0.652761
     29          1           0       -5.067026    1.584589   -0.889645
     30          1           0       -2.973883    5.338372   -1.014181
 ---------------------------------------------------------------------
                    Distance matrix (angstroms):
                    1          2          3          4          5
     1  C    0.000000
     2  C    1.396847   0.000000
     3  C    2.413365   1.392271   0.000000
     4  C    2.833897   2.449292   1.407568   0.000000
     5  C    2.419775   2.788258   2.405495   1.414567   0.000000
     6  C    1.389025   2.406628   2.773528   2.447434   1.396485
     7  N    4.224657   3.682196   2.382398   1.394607   2.509594
     8  C    5.134893   4.848503   3.648346   2.406760   2.961641
     9  N    6.406545   5.961022   4.651970   3.596548   4.319240
    10  O    5.196764   5.246473   4.265727   2.871370   2.796929
    11  C    7.594947   7.290658   6.028598   4.865721   5.337221
    12  C    8.849871   8.383405   7.046039   6.041685   6.701964
    13  C   10.110544   9.755196   8.451183   7.356676   7.850522
    14  H    3.388104   2.135979   1.085170   2.157930   3.395464
    15  H    3.373623   3.865464   3.403394   2.184665   1.078433
    16  H    6.652485   6.000327   4.624595   3.825765   4.808064
    17  H    7.712948   7.526139   6.332577   5.104101   5.401165
    18  H    7.712942   7.526152   6.332594   5.104097   5.401136
    19  H    8.946417   8.385622   7.029709   6.136190   6.910525
    20  H    8.946419   8.385606   7.029690   6.136190   6.910546
    21  H   10.231151   9.962658   8.700080   7.547224   7.926429
    22  H   10.999561  10.553596   9.214161   8.203676   8.799468
    23  H   10.231153   9.962644   8.700065   7.547224   7.926448
    24  O    1.382313   2.452740   3.705196   4.214278   3.651885
    25  C    2.393386   2.887055   4.276324   5.108360   4.807908
    26  F    3.494101   4.197556   5.576772   6.306734   5.822767
    27  F    2.890998   2.974220   4.282272   5.268739   5.187580
    28  F    2.890989   2.974218   4.282268   5.268727   5.187563
    29  H    2.169457   1.084838   2.137701   3.417515   3.872793
    30  H    2.143720   3.390108   3.859841   3.428465   2.154515
                    6          7          8          9         10
     6  C    0.000000
     7  N    3.763506   0.000000
     8  C    4.353914   1.352380   0.000000
     9  N    5.705124   2.279758   1.368218   0.000000
    10  O    4.139337   2.340160   1.254479   2.254443   0.000000
    11  C    6.730660   3.647188   2.467932   1.451758   2.740773
    12  C    8.097555   4.704927   3.748307   2.445617   4.234681
    13  C    9.241119   6.077905   4.977207   3.799682   5.178275
    14  H    3.858523   2.578964   3.931246   4.666059   4.793759
    15  H    2.117983   2.821936   2.751556   4.097288   2.144253
    16  H    6.143179   2.431169   2.061124   1.015964   3.163489
    17  H    6.761485   4.014899   2.775788   2.098399   2.740969
    18  H    6.761459   4.014902   2.775785   2.098398   2.740959
    19  H    8.287264   4.779952   3.995560   2.686266   4.632397
    20  H    8.287283   4.779947   3.995561   2.686265   4.632404
    21  H    9.296001   6.334956   5.167864   4.119099   5.211176
    22  H   10.195288   6.874585   5.873914   4.607989   6.192597
    23  H    9.296018   6.334952   5.167865   4.119098   5.211181
    24  O    2.357775   5.606348   6.483329   7.774015   6.447798
    25  C    3.618733   6.458040   7.479871   8.704378   7.590150
    26  F    4.510335   7.682493   8.628564   9.895462   8.618458
    27  F    4.165742   6.534580   7.637496   8.785877   7.873418
    28  F    4.165727   6.534568   7.637465   8.785855   7.873366
    29  H    3.399902   4.520098   5.768676   6.786519   6.267369
    30  H    1.086314   4.656622   5.036363   6.404581   4.573329
                   11         12         13         14         15
    11  C    0.000000
    12  C    1.524153   0.000000
    13  C    2.518707   1.527822   0.000000
    14  H    6.107576   6.922415   8.397961   0.000000
    15  H    4.863907   6.324766   7.322259   4.317740   0.000000
    16  H    2.137623   2.536031   4.044518   4.401878   4.783110
    17  H    1.101298   2.155174   2.747094   6.509831   4.817969
    18  H    1.101297   2.155178   2.747100   6.509867   4.817913
[...]
 719,-0.00000066,0.00000129,0.00000501,0.00000034,0.00000484,0.00000042
 ,-0.00000095,-0.00000247,-0.00000032,-0.00001096,-0.00000052,-0.000008
 17,-0.00000096,-0.00000046,-0.00000132,0.04597754,-0.12101544,0.159799
 15,-0.07536150,0.01061276,-0.00879034,0.00708865,-0.00175624,0.0013780
 1,0.00379788,-0.00091803,0.00130688,-0.00741904,0.00347859,-0.00126955
 ,0.00117964,-0.00314747,0.00128306,0.00314631,-0.00024806,0.00015935,0
 .01115984,-0.00274619,0.00208618,-0.00707148,-0.00444447,-0.00130847,0
 .00299816,-0.00056669,0.00001040,0.00163758,0.00336220,0.00089823,-0.0
 0057045,-0.00042408,-0.00017282,0.00002036,0.00015217,0.00013667,0.000
 04306,-0.00007954,-0.00001881,0.00108298,-0.00092192,0.00050910,0.0007
 5515,-0.00014454,0.00004783,-0.00013448,0.00016327,0.00014133,0.000125
 21,0.00004194,0.00024744,0.00005467,0.00003152,0.00005345,0.00000161,-
 0.00000462,-0.00001567,0.00000010,-0.00002003,-0.00000037,0.00000169,0
 .00000774,0.00000064,0.00003751,0.00000167,0.00002728,0.00000263,0.000
 00211,0.00000544,-0.21648048,-0.04045932,0.01722390,0.58428728,0.00652
 132,0.01286004,-0.01350909,0.00420347,0.00239291,-0.00133827,0.0020635
 6,-0.00153077,0.00115781,-0.00342440,0.00071302,0.00004890,0.00034961,
 0.00072916,0.00026341,0.00486720,-0.00392167,0.00246934,0.00339109,-0.
 00114589,0.00047320,-0.00217545,-0.00123198,-0.00029200,0.00084907,-0.
 00018038,-0.00002336,0.00042455,0.00099181,0.00022605,-0.00017265,-0.0
 0011193,-0.00003129,0.00000324,0.00004347,0.00003527,0.00001225,-0.000
 02120,-0.00000528,0.00020668,-0.00014577,0.00006627,0.00044501,-0.0002
 2943,0.00015774,-0.00004173,0.00004353,0.00004004,0.00003988,0.0000121
 0,0.00007057,0.00001302,0.00000711,0.00001471,0.00000107,-0.00000094,-
 0.00000497,0.00000019,-0.00000727,0.00000064,-0.00000073,0.00000145,0.
 00000016,0.00001056,0.00000026,0.00000738,0.00000105,0.00000093,0.0000
 0106,-0.04934007,-0.11151428,0.02799477,-0.02346322,0.53956777,-0.0063
 5234,-0.01326750,-0.00297799,-0.00222997,-0.00154832,0.00069417,-0.001
 05676,0.00076796,-0.00075643,0.00170476,-0.00018204,0.00015335,-0.0001
 2544,0.00034689,0.00149099,-0.00270877,0.00218973,-0.00153351,-0.00163
 152,0.00049580,-0.00043635,0.00108311,0.00071938,0.00011630,-0.0004132
 5,0.00007548,0.00003225,-0.00013955,-0.00053475,-0.00006431,0.00008069
 ,0.00005179,0.00003224,-0.00000239,-0.00001950,-0.00001670,-0.00000536
 ,0.00000950,0.00000350,-0.00007711,0.00004636,-0.00002842,-0.00024284,
 0.00017937,-0.00000720,0.00001539,-0.00002281,-0.00001377,-0.00001445,
 -0.00000605,-0.00004151,-0.00000870,-0.00000305,-0.00000727,0.00000142
 ,0.,0.00000002,0.00000033,0.00000241,0.00000137,-0.00000077,-0.0000004
 4,0.00000005,-0.00000405,-0.00000100,-0.00000341,-0.00000039,-0.000000
 04,-0.00000261,0.02202765,0.02815773,-0.07630088,0.01760394,-0.0236543
 2,0.51616871,0.00870177,-0.01083070,0.00636146,-0.00141254,0.00058216,
 -0.00042850,-0.00078659,0.00026871,-0.00030336,0.00172851,-0.00076159,
 0.00030502,-0.00077844,-0.00015196,0.00025664,-0.00214548,0.00252320,-
 0.00158521,-0.00241872,0.00058900,-0.00047906,0.00156203,0.00095488,0.
 00030974,-0.00067391,0.00012582,-0.00000281,-0.00038772,-0.00072133,-0
 .00024191,0.00012543,0.00009679,0.00004200,-0.00000508,-0.00003410,-0.
 00003125,-0.00000972,0.00001837,0.00000425,-0.00026376,0.00021802,-0.0
 0011781,-0.00034999,0.00020317,-0.00010841,0.00003007,-0.00003730,-0.0
 0003282,-0.00002716,-0.00000941,-0.00005483,-0.00001271,-0.00000716,-0
 .00001222,-0.00000033,0.00000123,0.00000365,-0.00000015,0.00000438,0.0
 0000004,-0.00000055,-0.00000198,-0.00000013,-0.00000853,-0.00000033,-0
 .00000619,-0.00000057,-0.00000048,-0.00000127,-0.09118020,0.04051373,-
 0.02844259,-0.14870283,0.08401332,-0.05386297,0.22131743,-0.00393629,0
 .00470521,-0.00071529,-0.00005305,-0.00040487,0.00034898,0.00038505,0.
 00009673,-0.00014147,-0.00052106,0.00024578,-0.00011048,0.00023552,-0.
 00009718,-0.00013341,0.00050328,-0.00056458,0.00043489,0.00083523,-0.0
 0016987,0.00018642,-0.00053174,-0.00033896,-0.00010874,0.00023497,-0.0
 0004094,0.00000216,0.00013471,0.00025205,0.00008040,-0.00004404,-0.000
 03468,-0.00001613,0.00000175,0.00001157,0.00001112,0.00000319,-0.00000
 591,-0.00000148,0.00006036,-0.00006980,0.00002439,0.00009101,-0.000049
 59,0.00001416,-0.00001029,0.00001342,0.00001122,0.00000903,0.00000325,
 0.00001890,0.00000483,0.00000290,0.00000421,0.00000041,-0.00000068,-0.
 00000112,-0.00000002,-0.00000107,-0.00000019,0.00000032,0.00000086,-0.
 00000001,0.00000290,0.00000014,0.00000220,0.00000015,0.00000002,0.0000
 0037,0.01856129,0.00598872,0.00253302,0.08466547,-0.16064381,0.0580829
 5,-0.14373111,0.23848652,0.00253564,-0.00112209,0.00441233,-0.00003600
 ,0.00036770,-0.00007055,-0.00024524,-0.00017777,-0.00014654,0.00038540
 ,-0.00018906,0.00005108,-0.00018548,-0.00008402,-0.00015382,-0.0003891
 8,0.00053866,-0.00020340,-0.00059522,0.00013419,-0.00007325,0.00038387
 ,0.00022530,0.00009342,-0.00016715,0.00003413,-0.00000625,-0.00010620,
 -0.00017433,-0.00006716,0.00003444,0.00002611,0.00000707,-0.00000151,-
 0.00000903,-0.00000750,-0.00000209,0.00000439,0.00000109,-0.00004591,0
 .00003686,-0.00004155,-0.00006633,0.00002550,-0.00003577,0.00000734,-0
 .00000905,-0.00000881,-0.00000766,-0.00000203,-0.00001249,-0.00000316,
 -0.00000201,-0.00000303,-0.00000052,0.00000034,0.00000119,0.00000001,0
 .00000100,-0.00000028,-0.00000008,-0.00000065,-0.00000011,-0.00000222,
 -0.00000002,-0.00000160,-0.00000010,-0.00000017,0.00000007,-0.01553447
 ,0.00360524,0.00611701,-0.05426091,0.05793834,-0.10730603,0.09243634,-
 0.10150236,0.14470408,0.00869440,-0.00455187,0.00296001,-0.00180373,0.
 00134143,-0.00242177,-0.00068178,-0.00056141,-0.00016652,0.00095879,-0
 .00046897,0.00027552,-0.00029442,0.00045994,0.00004824,-0.00080621,0.0
 0062683,-0.00029059,-0.00170039,0.00037000,-0.00033961,0.00108827,0.00
 070050,0.00024861,-0.00048069,0.00009102,-0.00000683,-0.00027019,-0.00
 051463,-0.00015982,0.00008981,0.00006995,0.00002574,-0.00000336,-0.000
 02419,-0.00002272,-0.00000766,0.00001288,0.00000330,-0.00010775,0.0001
 0832,-0.00010970,-0.00014102,0.00004173,-0.00002046,0.00001987,-0.0000
 2720,-0.00002429,-0.00001921,-0.00000675,-0.00003895,-0.00000863,-0.00
 000499,-0.00000870,-0.00000035,0.00000100,0.00000266,0.00000002,0.0000
 0329,0.,-0.00000020,-0.00000124,-0.00000009,-0.00000614,-0.00000025,-0
 .00000441,-0.00000040,-0.00000038,-0.00000086,-0.03324879,-0.05318472,
 -0.01621469,-0.07840481,-0.02824979,-0.01459387,0.00661540,0.03238276,
 0.00304730,0.08986588,0.00895041,-0.00571947,0.00335191,-0.00012119,-0
 .00059940,0.00167533,-0.00117048,0.00068626,-0.00031773,0.00169245,-0.
 00033512,-0.00005996,0.00007019,0.00016766,0.00030083,-0.00182644,0.00
 112447,-0.00066388,-0.00186831,0.00051646,-0.00035156,0.00119118,0.000
 71495,0.00016114,-0.00048935,0.00009878,0.00001886,-0.00023380,-0.0005
 4544,-0.00011335,0.00009522,0.00006511,0.00002357,-0.00000263,-0.00002
 472,-0.00002058,-0.00000690,0.00001211,0.00000293,-0.00013812,0.000107
 99,-0.00005683,-0.00017936,0.00006194,-0.00004786,0.00002221,-0.000026
 78,-0.00002500,-0.00002064,-0.00000700,-0.00003940,-0.00000845,-0.0000
 0409,-0.00000896,-0.00000064,0.00000059,0.00000291,0.00000018,0.000003
 55,-0.00000033,0.00000019,-0.00000092,-0.00000024,-0.00000598,-0.00000
 023,-0.00000427,-0.00000054,-0.00000053,-0.00000044,-0.04955963,-0.036
 74919,-0.01408559,-0.02476083,-0.20496483,-0.06589095,0.01992357,-0.08
 119605,-0.00452217,0.04699969,0.33935263,0.00286143,-0.00022210,0.0011
 8287,-0.00059420,0.00140837,-0.00182590,-0.00040913,-0.00054231,0.0000
 8222,0.00025076,-0.00005325,0.00006252,-0.00014125,0.00010083,-0.00010
 816,-0.00002649,0.00024758,0.00003374,-0.00056868,0.00008661,-0.000083
 32,0.00034824,0.00022447,0.00008951,-0.00016288,0.00002953,-0.00000611
 ,-0.00009785,-0.00015926,-0.00005981,0.00002724,0.00002429,0.00000807,
 -0.00000091,-0.00000803,-0.00000815,-0.00000279,0.00000432,0.00000106,
 -0.00002755,0.00003085,-0.00005502,-0.00004151,-0.00000869,-0.00002338
 ,0.00000697,-0.00000932,-0.00001045,-0.00000660,-0.00000225,-0.0000116
 2,-0.00000304,-0.00000166,-0.00000290,-0.00000056,0.00000044,0.0000013
 9,0.00000014,0.00000108,-0.00000004,0.00000013,-0.00000041,-0.00000012
 ,-0.00000218,0.,-0.00000156,-0.00000007,-0.00000020,0.00000022,-0.0082
 8922,-0.00923441,0.01084025,-0.01483042,-0.06243882,-0.09838074,0.0003
 7065,0.00618375,0.01453259,0.02307460,0.11902663,0.13769638,0.00927947
 ,-0.00463487,0.00321196,-0.00180564,0.00274090,-0.00024355,-0.00076612
 ,-0.00024426,0.00040364,0.00103906,-0.00056111,0.00012788,-0.00030332,
 0.00025751,-0.00031526,-0.00090881,0.00059024,-0.00047595,-0.00178108,
 0.00039865,-0.00034631,0.00111578,0.00069653,0.00022258,-0.00049034,0.
 00008818,-0.00001123,-0.00028729,-0.00052659,-0.00017144,0.00009119,0.
 00007184,0.00003278,-0.00000453,-0.00002566,-0.00002289,-0.00000709,0.
 00001384,0.00000304,-0.00012030,0.00016458,-0.00002961,-0.00015098,0.0
 0004391,-0.00002143,0.00002215,-0.00002777,-0.00002208,-0.00001985,-0.
 00000693,-0.00004013,-0.00000919,-0.00000507,-0.00000904,-0.00000011,0
 .00000058,0.00000237,0.00000006,0.00000331,0.00000004,-0.00000033,-0.0
 0000126,-0.00000012,-0.00000635,-0.00000027,-0.00000458,-0.00000041,-0
 .00000039,-0.00000111,-0.03889613,-0.01345764,0.05377155,-0.08332832,-
 0.00128753,0.04131867,0.00883880,0.01087797,-0.02727061,0.01324737,0.0
 0055281,0.00056105,0.09727245,0.00200344,-0.00179668,0.00223537,0.0005
 3145,-0.00264813,0.00023461,-0.00025534,0.00049871,-0.00063785,0.00064
 158,-0.00005013,0.00003601,0.00012976,-0.00017876,-0.00006625,-0.00087
 819,0.00045554,-0.00020252,-0.00048752,0.00022152,-0.00003669,0.000335
 23,0.00017570,0.00003924,-0.00011656,0.00002952,0.00000833,-0.00005126
 ,-0.00015227,-0.00002367,0.00002613,0.00001428,0.00000233,-0.00000011,
 -0.00000572,-0.00000412,-0.00000146,0.00000242,0.00000093,-0.00004424,
 0.00000185,-0.00003500,-0.00005232,0.00002602,-0.00002430,0.00000565,-
 0.00000518,-0.00000559,-0.00000574,-0.00000183,-0.00001011,-0.00000191
 ,-0.00000066,-0.00000216,-0.00000033,0.00000022,0.00000058,0.00000007,
 0.00000087,0.00000005,0.00000015,-0.00000018,-0.00000006,-0.00000138,-
 0.00000002,-0.00000095,-0.00000016,-0.00000014,-0.00000019,-0.01906582
 ,0.00884440,0.01683357,0.00036188,-0.06831677,0.01181685,0.00660857,-0
 .00679581,0.04511021,0.00450348,-0.01332090,-0.05429103,0.00367431,0.0
 8302457,-0.00867125,0.00503452,-0.00303429,0.00019133,0.00061226,0.000
 39719,0.00114718,-0.00020491,0.00044765,-0.00154323,0.00024334,-0.0000
 7285,0.00001911,-0.00001236,0.00009269,0.00150994,-0.00095296,0.000741
 47,0.00184193,-0.00050043,0.00029998,-0.00117831,-0.00073198,-0.000205
 80,0.00047500,-0.00008811,0.00000613,0.00024711,0.00057073,0.00014903,
 -0.00009164,-0.00006752,-0.00003132,0.00000376,0.00002384,0.00002162,0
 .00000674,-0.00001208,-0.00000325,0.00012920,-0.00012076,0.00004471,0.
 00017297,-0.00007800,0.00000376,-0.00002108,0.00002575,0.00001812,0.00
 002064,0.00000666,0.00004229,0.00000876,0.00000462,0.00000804,-0.00000
 084,-0.00000034,-0.00000165,0.00000022,-0.00000327,-0.00000053,0.00000
 031,0.00000096,-0.00000014,0.00000561,0.00000062,0.00000421,0.00000057
 ,0.00000015,0.00000163,0.04717758,0.01211902,-0.02902060,0.03837868,0.
 00812213,-0.22989863,-0.01459015,0.03505185,-0.06212455,0.00592391,-0.
 03778395,-0.06279114,-0.07103180,-0.02064276,0.38511066,0.00216686,0.0
 0129124,-0.00078631,-0.28853380,-0.11036181,0.05599764,-0.01825512,-0.
 01147218,0.00604453,-0.00044908,0.00270075,-0.00189618,-0.00002177,0.0
 0078893,-0.00044831,0.00155195,0.00010671,-0.00017672,-0.00176686,-0.0
 0063233,-0.00017015,0.00045452,0.00074230,0.00044359,-0.00040601,0.000
 00128,-0.00012202,-0.00015250,-0.00041032,-0.00014788,0.00005109,0.000
 08529,0.00003360,-0.00000781,-0.00002598,-0.00002587,-0.00000816,0.000
 01440,0.00000372,0.00133207,0.00001211,0.00026078,-0.00004561,-0.00007
 168,0.00008166,0.00001397,-0.00002593,-0.00001682,-0.00001396,-0.00000
 502,-0.00003022,-0.00000739,-0.00000688,-0.00000656,-0.00000060,0.0000
 0078,0.00000255,0.00000047,0.00000292,0.00000005,-0.00000039,-0.000001
 13,-0.00000008,-0.00000602,-0.00000045,-0.00000451,-0.00000008,-0.0000
 0026,-0.00000100,0.00064503,-0.00060962,0.00048233,-0.00015894,0.00094
 351,-0.00051407,0.00013453,-0.00014614,0.00007923,-0.00268432,0.000716
 86,-0.00232093,-0.00211041,0.00207809,0.00002714,0.30815560,-0.0243557
 1,-0.00515275,0.00423374,-0.10882551,-0.10464051,0.03699152,0.01412530
 ,0.01054015,-0.00342452,0.00246808,0.00086433,0.00393749,0.00089841,-0
 .00077834,0.00000370,0.00079065,-0.00273094,0.00491160,0.00059667,0.00
 055047,-0.00010693,0.00007066,-0.00023567,-0.00022196,0.00014415,0.000
 02638,0.00008487,0.00005388,0.00006445,0.00004905,-0.00001041,-0.00004
 181,-0.00000760,0.00000384,0.00001009,0.00001087,0.00000394,-0.0000058
 3,-0.00000157,-0.00032073,-0.00056685,-0.00243872,-0.00005763,-0.00010
 289,-0.00037594,-0.00000360,0.00001025,0.00000331,0.00000454,0.0000014
 3,0.00000879,0.00000177,0.00000250,0.00000112,0.00000044,-0.00000040,-
 0.00000106,-0.00000016,-0.00000107,0.,0.00000001,0.00000036,0.00000003
 ,0.00000239,0.00000030,0.00000179,0.00000004,0.00000010,0.00000010,0.0
 0016066,0.00142997,-0.00284986,0.00110338,-0.00333454,0.00253695,-0.00
 025194,0.00056788,-0.00029356,-0.00008581,0.00058506,-0.00039949,0.000
 48338,-0.00007992,-0.00050411,0.11416828,0.10324114,0.01419551,0.00527
 426,0.00114394,0.05504997,0.03686700,-0.05497041,-0.00942692,-0.004291
 12,0.00621521,-0.00163567,0.00425510,0.00503186,-0.00043367,-0.0003170
 4,-0.00070889,-0.00051545,0.00485770,0.00253382,-0.00035027,-0.0003171
 4,-0.00019635,-0.00007046,0.00016026,0.00005124,-0.00004124,-0.0000070
 2,-0.00005397,-0.00003285,-0.00007966,-0.00005354,-0.00001090,0.000013
 89,0.00001711,-0.00000359,-0.00000521,-0.00000554,-0.00000176,0.000002
 78,0.00000085,0.00042915,-0.00235776,-0.00321045,0.00008917,-0.0004074
 6,-0.00051244,-0.00000079,-0.00000345,-0.00000569,0.00000143,-0.000000
 64,-0.00000205,-0.00000199,-0.00000257,-0.00000229,0.00000031,-0.00000
 006,0.00000004,0.00000015,0.00000027,0.00000011,-0.00000007,-0.0000001
 0,0.00000004,-0.00000106,-0.00000007,-0.00000090,0.00000003,-0.0000000
 4,-0.00000041,0.00024335,-0.00294246,-0.00170115,-0.00082127,0.0025328
 8,-0.00050645,0.00017109,-0.00030714,0.00026180,-0.00104283,-0.0004206
 0,-0.00114970,0.00027621,-0.00037389,-0.00014776,-0.05670921,-0.042464
 80,0.04780806,0.00176097,-0.02314626,0.01400746,-0.00507456,-0.0017417
 4,0.00073605,-0.00105748,0.00049122,-0.00028611,-0.00401495,0.00147782
 ,-0.00105333,0.00659023,0.02257028,-0.01398384,-0.05977523,-0.01590096
 ,0.00898896,-0.00000022,0.00102057,-0.00088419,0.00054192,0.00039410,0
 .00034761,-0.00027797,0.00001751,0.00000304,-0.00008123,-0.00027020,-0
 .00015400,0.00002535,0.00003597,0.00004592,-0.00000462,-0.00001376,-0.
 00001489,-0.00000420,0.00000745,0.00000153,0.00017795,0.00001121,0.000
 02392,0.00125991,-0.00050636,0.00048604,0.00001562,-0.00004371,-0.0000
 2384,-0.00000317,-0.00000154,-0.00001765,-0.00000916,-0.00000525,-0.00
 000910,0.00000008,0.00000013,0.00000129,0.00000025,0.00000123,0.000000
 17,-0.00000027,-0.00000067,-0.00000001,-0.00000316,-0.00000033,-0.0000
 0261,-0.00000028,-0.00000011,-0.00000051,0.00231829,-0.00049766,0.0005
 0724,0.00021201,-0.00020409,0.00014861,0.00011101,-0.00001646,0.000010
 49,0.00009025,0.00017836,0.00002504,0.00009025,0.00006253,-0.00015938,
 0.00012274,-0.00116896,0.00064363,0.05698966,0.00168452,-0.00664906,0.
 00707445,-0.00258693,0.00178076,0.00176578,0.00043765,0.00018050,-0.00
 068764,0.00155304,0.00303967,0.00295332,-0.00231521,-0.00669172,0.0064
 9928,-0.01712610,-0.26422551,0.13882317,0.00050887,-0.00065795,0.00032
 451,-0.00065232,-0.00043757,-0.00024464,0.00030779,-0.00002493,0.00000
 358,0.00008490,0.00033322,0.00006785,-0.00004126,-0.00003954,-0.000036
 27,0.00000380,0.00001650,0.00001634,0.00000427,-0.00000920,-0.00000171
 ,0.00000448,-0.00021691,-0.00018890,0.00000982,-0.00063857,-0.00253089
 ,-0.00002075,0.00003029,0.00001640,0.00000762,0.00000352,0.00002330,0.
 00000912,0.00000339,0.00000820,0.00000039,-0.00000040,-0.00000199,-0.0
 0000015,-0.00000195,-0.00000009,0.00000044,0.00000114,0.,0.00000394,0.
 00000007,0.00000291,0.00000014,0.00000025,0.00000067,0.00065083,-0.000
 36136,-0.00171561,0.00012053,-0.00006210,-0.00034838,-0.00010558,0.000
 03875,0.00004034,-0.00003064,-0.00000290,0.00000248,0.00012082,0.00005
 749,-0.00011290,0.00011629,-0.00022333,0.00033410,0.01724968,0.2747574
 3,-0.00155160,0.00581835,0.00127780,0.00124164,0.00203607,0.00344521,-
 0.00003731,-0.00082879,-0.00049056,-0.00121389,0.00243168,0.00633269,0
 .00088357,0.00761533,-0.00057779,0.01056023,0.13887257,-0.12088814,-0.
 00064019,0.00041013,-0.00079919,0.00063708,0.00038201,0.00019481,-0.00
 024167,0.00005498,0.00000089,-0.00022177,-0.00021827,-0.00022806,0.000
 03778,0.00003529,0.00002636,-0.00000182,-0.00001248,-0.00001154,-0.000
 00293,0.00000764,0.00000135,0.00003087,-0.00016034,-0.00040717,0.00030
 781,-0.00258777,-0.00318490,0.00000552,-0.00002637,-0.00002652,-0.0000
 0976,-0.00000154,-0.00001785,-0.00000517,-0.00000610,-0.00000465,-0.00
 000021,0.00000048,0.00000154,-0.00000004,0.00000144,0.00000022,-0.0000
 0072,-0.00000091,0.,-0.00000317,-0.00000021,-0.00000243,-0.00000015,-0
 .00000007,-0.00000088,-0.00028020,-0.00166287,-0.00214572,-0.00000922,
 -0.00032327,-0.00041074,0.00004062,0.00004684,0.00008096,-0.00014315,-
 0.00015043,-0.00001271,0.00008538,0.00003905,-0.00005667,-0.00007997,0
 .00031518,0.00016391,-0.00938754,-0.15208763,0.11773978\\0.00000929,-0
 .00000218,-0.00000180,-0.00000047,-0.00000042,0.00000305,-0.00000320,-
 0.00000266,-0.00000397,-0.00000159,0.00000506,-0.00000400,0.00000550,0
 .00000114,0.00000967,-0.00000895,0.00000702,0.00000709,0.00000935,0.00
 000570,-0.00000873,-0.00001875,0.00001469,0.00000178,0.00000772,-0.000
 01491,0.00000002,-0.00000329,-0.00000535,0.00000592,0.00000630,0.00000
 397,0.00000035,0.00000193,-0.00000236,-0.00000766,0.00000131,-0.000005
 41,-0.00000506,0.00000421,-0.00000518,-0.00001152,-0.00000302,0.000010
 79,0.00000965,0.00000400,0.00000051,-0.00001088,-0.00000023,-0.0000117
 8,-0.00000246,-0.00000214,0.00000012,0.00000463,0.00000273,0.00000729,
 -0.00000750,0.00000404,-0.00000304,-0.00001353,-0.00000094,-0.00000363
 ,0.00000188,0.00000177,-0.00000478,-0.00000798,-0.00000014,-0.00001205
 ,-0.00000378,-0.00000563,0.00001627,0.00002185,-0.00000101,-0.00000567
 ,-0.00000673,-0.00000394,0.00000134,0.00001099,0.00000080,0.00000645,0
 .00000203,-0.00000439,-0.00000660,0.00000712,0.00000161,-0.00000497,-0
 .00000580,-0.00000287,0.00001063,0.00001538\\\@


 IN THE LONG RUN, DIGGING FOR TRUTH HAS ALWAYS PROVED NOT ONLY 
 MORE INTERESTING BUT MORE PROFITABLE THAN DIGGING FOR GOLD.

                             -- GEORGE R. HARRISON
 Job cpu time:       0 days  2 hours 52 minutes  9.5 seconds.
 File lengths (MBytes):  RWF=    529 Int=      0 D2E=      0 Chk=     19 Scr=      1
 Normal termination of Gaussian 09 at Tue Jul 10 17:23:04 2018.
WARNING: pbs_rusage is deprecated and values produced may not be accurate


=============================================================================
                                     Resource usage:
                                       CPU time:              20:56:24
   JobId:    8295544.r-man2            Elapsed time:          05:16:30
   Project:             q95            Requested time:        96:00:00
   Service Units:     21.10 
                                       Max physical memory:      669MB
                                       Max virtual memory:      1579MB
                                       Requested memory:           0MB

                                       Number of cpus:               4

                                       Max jobfs disk use:       0.5GB
                                       Requested jobfs:         16.0GB
=============================================================================

