 Entering Gaussian System, Link 0=/apps/gaussian/g09e01/g09/g09
 AtFile(1): /home/507/hio507/Basis/6-31pGd.gbs
 Initial command:
 /apps/gaussian/g09e01/g09/l1.exe "/jobfs/local/5874621.r-man2/Gau-17799.inp" -scrdir="/jobfs/local/5874621.r-man2/"
 Entering Link 1 = /apps/gaussian/g09e01/g09/l1.exe PID=     17800.
  
 Copyright (c) 1988,1990,1992,1993,1995,1998,2003,2009,2015,
            Gaussian, Inc.  All Rights Reserved.
  
 This is part of the Gaussian(R) 09 program.  It is based on
 the Gaussian(R) 03 system (copyright 2003, Gaussian, Inc.),
 the Gaussian(R) 98 system (copyright 1998, Gaussian, Inc.),
 the Gaussian(R) 94 system (copyright 1995, Gaussian, Inc.),
 the Gaussian 92(TM) system (copyright 1992, Gaussian, Inc.),
 the Gaussian 90(TM) system (copyright 1990, Gaussian, Inc.),
 the Gaussian 88(TM) system (copyright 1988, Gaussian, Inc.),
 the Gaussian 86(TM) system (copyright 1986, Carnegie Mellon
 University), and the Gaussian 82(TM) system (copyright 1983,
 Carnegie Mellon University). Gaussian is a federally registered
 trademark of Gaussian, Inc.
  
 This software contains proprietary and confidential information,
 including trade secrets, belonging to Gaussian, Inc.
  
 This software is provided under written license and may be
 used, copied, transmitted, or stored only in accord with that
 written license.
  
 The following legend is applicable only to US Government
 contracts under FAR:
  
                    RESTRICTED RIGHTS LEGEND
  
 Use, reproduction and disclosure by the US Government is
 subject to restrictions as set forth in subparagraphs (a)
 and (c) of the Commercial Computer Software - Restricted
 Rights clause in FAR 52.227-19.
  
 Gaussian, Inc.
 340 Quinnipiac St., Bldg. 40, Wallingford CT 06492
  
  
 ---------------------------------------------------------------
 Warning -- This program may not be used in any manner that
 competes with the business of Gaussian, Inc. or will provide
 assistance to any competitor of Gaussian, Inc.  The licensee
 of this program is prohibited from giving any competitor of
 Gaussian, Inc. access to this program.  By using this program,
 the user acknowledges that Gaussian, Inc. is engaged in the
 business of creating and licensing software in the field of
 computational chemistry and represents and warrants to the
 licensee that it is not a competitor of Gaussian, Inc. and that
 it will not use this program in any manner prohibited above.
 ---------------------------------------------------------------
  

 Cite this work as:
 Gaussian 09, Revision E.01,
 M. J. Frisch, G. W. Trucks, H. B. Schlegel, G. E. Scuseria, 
 M. A. Robb, J. R. Cheeseman, G. Scalmani, V. Barone, B. Mennucci, 
 G. A. Petersson, H. Nakatsuji, M. Caricato, X. Li, H. P. Hratchian, 
 A. F. Izmaylov, J. Bloino, G. Zheng, J. L. Sonnenberg, M. Hada, 
 M. Ehara, K. Toyota, R. Fukuda, J. Hasegawa, M. Ishida, T. Nakajima, 
 Y. Honda, O. Kitao, H. Nakai, T. Vreven, J. A. Montgomery, Jr., 
 J. E. Peralta, F. Ogliaro, M. Bearpark, J. J. Heyd, E. Brothers, 
 K. N. Kudin, V. N. Staroverov, T. Keith, R. Kobayashi, J. Normand, 
 K. Raghavachari, A. Rendell, J. C. Burant, S. S. Iyengar, J. Tomasi, 
 M. Cossi, N. Rega, J. M. Millam, M. Klene, J. E. Knox, J. B. Cross, 
 V. Bakken, C. Adamo, J. Jaramillo, R. Gomperts, R. E. Stratmann, 
 O. Yazyev, A. J. Austin, R. Cammi, C. Pomelli, J. W. Ochterski, 
 R. L. Martin, K. Morokuma, V. G. Zakrzewski, G. A. Voth, 
 P. Salvador, J. J. Dannenberg, S. Dapprich, A. D. Daniels, 
 O. Farkas, J. B. Foresman, J. V. Ortiz, J. Cioslowski, 
 and D. J. Fox, Gaussian, Inc., Wallingford CT, 2013.
 
 ******************************************
 Gaussian 09:  ES64L-G09RevE.01 30-Nov-2015
                19-Feb-2019 
 ******************************************
 %chk=3Chloro4TFM_EtO.M062X_6-31pGd_opt_Pentadecane.chk
 %mem=196608000
 %nproc=8
 Will use up to    8 processors via shared memory.
 ----------------------------------------------------------------------
 # M062X/Gen 6D SCF=Tight INT(grid=ultrafine) OPT IOP(2/17=4) SCRF=(SMD
 ,Solvent=n-Pentadecane) maxdisk=2684354560
 ----------------------------------------------------------------------
 1/14=-1,18=20,19=15,26=4,38=1/1,3;
 2/9=110,12=2,17=4,18=5,40=1/2;
 3/5=7,8=2,11=2,16=1,25=1,30=1,70=32201,71=1,72=151,74=-55,75=-5/1,2,3;
 4//1;
 5/5=2,32=2,38=5,53=151/2;
 6/7=2,8=2,9=2,10=2,28=1/1;
 7//1,2,3,16;
 1/14=-1,18=20,19=15,26=4/3(2);
 2/9=110,17=4/2;
 99//99;
 2/9=110,17=4/2;
 3/5=7,6=1,8=2,11=2,16=1,25=1,30=1,70=32205,71=1,72=151,74=-55,75=-5,82=7/1,2,3;
 4/5=5,16=3,69=1/1;
 5/5=2,32=2,38=5,53=151/2;
 7//1,2,3,16;
 1/14=-1,18=20,19=15,26=4/3(-5);
 2/9=110,17=4/2;
 6/7=2,8=2,9=2,10=2,19=2,28=1/1;
 99/9=1/99;
 ---------------------------------------------
 3Chloro4TFM_EtO.M062X_6-31pGd_opt_Pentadecane
 ---------------------------------------------
 Symbolic Z-matrix:
 Charge = -1 Multiplicity = 1
 C                    -1.9912    2.20004  -0.13356 
 C                    -0.64419   1.4895   -0.03942 
 C                     0.51575   2.48917  -0.10011 
 N                     1.79903   1.8111   -0.01419 
 C                     2.97488   2.50284  -0.04876 
 O                     2.94324   3.71828  -0.15317 
 N                     4.16571   1.8256    0.02903 
 C                     5.49802   2.38126   0.00944 
 C                     5.79041   3.76439  -0.05449 
 C                     6.58365   1.49072   0.05926 
 C                     7.90008   1.9479    0.04401 
 C                     8.19295   3.31772  -0.02025 
 C                     7.11303   4.23377  -0.06934 
 H                    -2.81055   1.45209  -0.08679 
 H                    -2.06941   2.75354  -1.09359 
 H                    -2.11168   2.91297   0.70981 
 H                    -0.55818   0.76947  -0.88223 
 H                    -0.60008   0.92758   0.91894 
 H                     0.42339   3.20654   0.74511 
 H                     0.46288   3.05049  -1.05913 
 H                     1.81879   0.67341   0.08358 
 H                     4.09581   0.68604   0.11492 
 H                     5.02742   4.5183   -0.09151 
 H                     6.42106   0.42312   0.10906 
 H                     8.70226   1.22026   0.08297 
 Cl                    7.32335   5.98274  -0.14988 
 C                     9.65998   3.70621  -0.03134 
 F                     9.87484   5.06788  -0.09469 
 F                     10.2744   3.12594  -1.12661 
 F                     10.26349   3.2321    1.11966 
 O                     1.81046  -1.38743   0.32547 
 O                     4.0377   -1.37594   0.35577 
 C                     2.85393  -2.0218    0.41477 
 C                     2.8441   -3.51688   0.5905 
 C                     1.43475  -4.10672   0.64131 
 H                     3.37129  -3.76697   1.53581 
 H                     3.39534  -3.97784  -0.25668 
 H                     0.86819  -3.67956   1.49629 
 H                     1.49688  -5.20769   0.7716 
 H                     0.89168  -3.89116  -0.30369 
 
 Add virtual bond connecting atoms O31        and H21        Dist= 3.92D+00.
 Add virtual bond connecting atoms O32        and H22        Dist= 3.92D+00.

 GradGradGradGradGradGradGradGradGradGradGradGradGradGradGradGradGradGrad
 Berny optimization.
 Initialization pass.
                           ----------------------------
                           !    Initial Parameters    !
                           ! (Angstroms and Degrees)  !
 --------------------------                            --------------------------
 ! Name  Definition              Value          Derivative Info.                !
 --------------------------------------------------------------------------------
 ! R1    R(1,2)                  1.5258         estimate D2E/DX2                !
 ! R2    R(1,14)                 1.1104         estimate D2E/DX2                !
 ! R3    R(1,15)                 1.1109         estimate D2E/DX2                !
 ! R4    R(1,16)                 1.1109         estimate D2E/DX2                !
 ! R5    R(2,3)                  1.5325         estimate D2E/DX2                !
 ! R6    R(2,17)                 1.1118         estimate D2E/DX2                !
 ! R7    R(2,18)                 1.1118         estimate D2E/DX2                !
 ! R8    R(3,4)                  1.4539         estimate D2E/DX2                !
 ! R9    R(3,19)                 1.1125         estimate D2E/DX2                !
 ! R10   R(3,20)                 1.1125         estimate D2E/DX2                !
 ! R11   R(4,5)                  1.3647         estimate D2E/DX2                !
 ! R12   R(4,21)                 1.1421         estimate D2E/DX2                !
 ! R13   R(5,6)                  1.2203         estimate D2E/DX2                !
 ! R14   R(5,7)                  1.3721         estimate D2E/DX2                !
 ! R15   R(7,8)                  1.4437         estimate D2E/DX2                !
 ! R16   R(7,22)                 1.1449         estimate D2E/DX2                !
 ! R17   R(8,9)                  1.4151         estimate D2E/DX2                !
 ! R18   R(8,10)                 1.405          estimate D2E/DX2                !
 ! R19   R(9,13)                 1.4035         estimate D2E/DX2                !
 ! R20   R(9,23)                 1.0733         estimate D2E/DX2                !
 ! R21   R(10,11)                1.3936         estimate D2E/DX2                !
 ! R22   R(10,24)                1.0811         estimate D2E/DX2                !
 ! R23   R(11,12)                1.4023         estimate D2E/DX2                !
 ! R24   R(11,25)                1.0837         estimate D2E/DX2                !
 ! R25   R(12,13)                1.417          estimate D2E/DX2                !
 ! R26   R(12,27)                1.5176         estimate D2E/DX2                !
 ! R27   R(13,26)                1.7634         estimate D2E/DX2                !
 ! R28   R(21,31)                2.075          estimate D2E/DX2                !
 ! R29   R(22,32)                2.0768         estimate D2E/DX2                !
 ! R30   R(27,28)                1.38           estimate D2E/DX2                !
 ! R31   R(27,29)                1.3834         estimate D2E/DX2                !
 ! R32   R(27,30)                1.3834         estimate D2E/DX2                !
 ! R33   R(31,33)                1.2244         estimate D2E/DX2                !
 ! R34   R(32,33)                1.3498         estimate D2E/DX2                !
 ! R35   R(33,34)                1.5054         estimate D2E/DX2                !
 ! R36   R(34,35)                1.5286         estimate D2E/DX2                !
 ! R37   R(34,36)                1.1109         estimate D2E/DX2                !
 ! R38   R(34,37)                1.1109         estimate D2E/DX2                !
 ! R39   R(35,38)                1.1111         estimate D2E/DX2                !
 ! R40   R(35,39)                1.1104         estimate D2E/DX2                !
 ! R41   R(35,40)                1.111          estimate D2E/DX2                !
 ! A1    A(2,1,14)             109.5813         estimate D2E/DX2                !
 ! A2    A(2,1,15)             110.3335         estimate D2E/DX2                !
 ! A3    A(2,1,16)             110.3503         estimate D2E/DX2                !
 ! A4    A(14,1,15)            108.6666         estimate D2E/DX2                !
 ! A5    A(14,1,16)            108.6803         estimate D2E/DX2                !
 ! A6    A(15,1,16)            109.1891         estimate D2E/DX2                !
 ! A7    A(1,2,3)              111.2222         estimate D2E/DX2                !
 ! A8    A(1,2,17)             108.8503         estimate D2E/DX2                !
 ! A9    A(1,2,18)             108.8783         estimate D2E/DX2                !
 ! A10   A(3,2,17)             109.5042         estimate D2E/DX2                !
 ! A11   A(3,2,18)             109.4992         estimate D2E/DX2                !
 ! A12   A(17,2,18)            108.8465         estimate D2E/DX2                !
 ! A13   A(2,3,4)              111.1922         estimate D2E/DX2                !
 ! A14   A(2,3,19)             109.1307         estimate D2E/DX2                !
 ! A15   A(2,3,20)             109.1056         estimate D2E/DX2                !
 ! A16   A(4,3,19)             109.2152         estimate D2E/DX2                !
 ! A17   A(4,3,20)             109.1597         estimate D2E/DX2                !
 ! A18   A(19,3,20)            109.0055         estimate D2E/DX2                !
 ! A19   A(3,4,5)              121.507          estimate D2E/DX2                !
 ! A20   A(3,4,21)             119.0067         estimate D2E/DX2                !
 ! A21   A(5,4,21)             119.4863         estimate D2E/DX2                !
 ! A22   A(4,5,6)              118.9921         estimate D2E/DX2                !
 ! A23   A(4,5,7)              119.7464         estimate D2E/DX2                !
 ! A24   A(6,5,7)              121.2611         estimate D2E/DX2                !
 ! A25   A(5,7,8)              127.6023         estimate D2E/DX2                !
 ! A26   A(5,7,22)             116.2646         estimate D2E/DX2                !
 ! A27   A(8,7,22)             116.1325         estimate D2E/DX2                !
 ! A28   A(7,8,9)              124.5745         estimate D2E/DX2                !
 ! A29   A(7,8,10)             117.9456         estimate D2E/DX2                !
 ! A30   A(9,8,10)             117.4799         estimate D2E/DX2                !
 ! A31   A(8,9,13)             121.4699         estimate D2E/DX2                !
 ! A32   A(8,9,23)             122.7673         estimate D2E/DX2                !
 ! A33   A(13,9,23)            115.7626         estimate D2E/DX2                !
 ! A34   A(8,10,11)            121.4363         estimate D2E/DX2                !
 ! A35   A(8,10,24)            120.754          estimate D2E/DX2                !
 ! A36   A(11,10,24)           117.8096         estimate D2E/DX2                !
 ! A37   A(10,11,12)           121.2148         estimate D2E/DX2                !
 ! A38   A(10,11,25)           118.5903         estimate D2E/DX2                !
 ! A39   A(12,11,25)           120.195          estimate D2E/DX2                !
 ! A40   A(11,12,13)           118.2908         estimate D2E/DX2                !
 ! A41   A(11,12,27)           116.8907         estimate D2E/DX2                !
 ! A42   A(13,12,27)           124.8185         estimate D2E/DX2                !
 ! A43   A(9,13,12)            120.1083         estimate D2E/DX2                !
 ! A44   A(9,13,26)            116.3958         estimate D2E/DX2                !
 ! A45   A(12,13,26)           123.4959         estimate D2E/DX2                !
 ! A46   A(12,27,28)           113.7928         estimate D2E/DX2                !
 ! A47   A(12,27,29)           109.1314         estimate D2E/DX2                !
 ! A48   A(12,27,30)           109.141          estimate D2E/DX2                !
 ! A49   A(28,27,29)           107.9621         estimate D2E/DX2                !
 ! A50   A(28,27,30)           107.9651         estimate D2E/DX2                !
 ! A51   A(29,27,30)           108.736          estimate D2E/DX2                !
 ! A52   A(21,31,33)           121.308          estimate D2E/DX2                !
 ! A53   A(22,32,33)           120.3102         estimate D2E/DX2                !
 ! A54   A(31,33,32)           119.7555         estimate D2E/DX2                !
 ! A55   A(31,33,34)           121.164          estimate D2E/DX2                !
 ! A56   A(32,33,34)           119.0805         estimate D2E/DX2                !
 ! A57   A(33,34,35)           113.1483         estimate D2E/DX2                !
 ! A58   A(33,34,36)           108.6518         estimate D2E/DX2                !
 ! A59   A(33,34,37)           108.6533         estimate D2E/DX2                !
 ! A60   A(35,34,36)           108.8068         estimate D2E/DX2                !
 ! A61   A(35,34,37)           108.8281         estimate D2E/DX2                !
 ! A62   A(36,34,37)           108.6656         estimate D2E/DX2                !
 ! A63   A(34,35,38)           110.3261         estimate D2E/DX2                !
 ! A64   A(34,35,39)           109.5663         estimate D2E/DX2                !
 ! A65   A(34,35,40)           110.3353         estimate D2E/DX2                !
 ! A66   A(38,35,39)           108.629          estimate D2E/DX2                !
 ! A67   A(38,35,40)           109.3098         estimate D2E/DX2                !
 ! A68   A(39,35,40)           108.6339         estimate D2E/DX2                !
 ! A69   L(4,21,31,2,-1)       178.8077         estimate D2E/DX2                !
 ! A70   L(7,22,32,1,-1)       181.9357         estimate D2E/DX2                !
 ! A71   L(4,21,31,2,-2)       181.9047         estimate D2E/DX2                !
 ! A72   L(7,22,32,1,-2)       182.3657         estimate D2E/DX2                !
 ! D1    D(14,1,2,3)          -179.9879         estimate D2E/DX2                !
 ! D2    D(14,1,2,17)           59.2791         estimate D2E/DX2                !
 ! D3    D(14,1,2,18)          -59.2427         estimate D2E/DX2                !
 ! D4    D(15,1,2,3)            60.4015         estimate D2E/DX2                !
 ! D5    D(15,1,2,17)          -60.3316         estimate D2E/DX2                !
 ! D6    D(15,1,2,18)         -178.8533         estimate D2E/DX2                !
 ! D7    D(16,1,2,3)           -60.3499         estimate D2E/DX2                !
 ! D8    D(16,1,2,17)          178.917          estimate D2E/DX2                !
 ! D9    D(16,1,2,18)           60.3952         estimate D2E/DX2                !
 ! D10   D(1,2,3,4)           -179.8372         estimate D2E/DX2                !
 ! D11   D(1,2,3,19)            59.6245         estimate D2E/DX2                !
 ! D12   D(1,2,3,20)           -59.3844         estimate D2E/DX2                !
 ! D13   D(17,2,3,4)           -59.4896         estimate D2E/DX2                !
 ! D14   D(17,2,3,19)          179.9721         estimate D2E/DX2                !
 ! D15   D(17,2,3,20)           60.9633         estimate D2E/DX2                !
 ! D16   D(18,2,3,4)            59.7835         estimate D2E/DX2                !
 ! D17   D(18,2,3,19)          -60.7547         estimate D2E/DX2                !
 ! D18   D(18,2,3,20)         -179.7636         estimate D2E/DX2                !
 ! D19   D(2,3,4,5)            179.9685         estimate D2E/DX2                !
 ! D20   D(2,3,4,21)             0.0152         estimate D2E/DX2                !
 ! D21   D(19,3,4,5)           -59.5431         estimate D2E/DX2                !
 ! D22   D(19,3,4,21)          120.5036         estimate D2E/DX2                !
 ! D23   D(20,3,4,5)            59.5475         estimate D2E/DX2                !
 ! D24   D(20,3,4,21)         -120.4057         estimate D2E/DX2                !
 ! D25   D(3,4,5,6)              0.061          estimate D2E/DX2                !
 ! D26   D(3,4,5,7)           -179.7086         estimate D2E/DX2                !
 ! D27   D(21,4,5,6)          -179.986          estimate D2E/DX2                !
 ! D28   D(21,4,5,7)             0.2444         estimate D2E/DX2                !
 ! D29   D(3,4,31,33)         -179.4188         estimate D2E/DX2                !
 ! D30   D(5,4,31,33)           -0.6796         estimate D2E/DX2                !
 ! D31   D(4,5,7,8)           -179.9549         estimate D2E/DX2                !
 ! D32   D(4,5,7,22)             0.3389         estimate D2E/DX2                !
 ! D33   D(6,5,7,8)              0.2809         estimate D2E/DX2                !
 ! D34   D(6,5,7,22)          -179.4253         estimate D2E/DX2                !
 ! D35   D(5,7,8,9)              2.0956         estimate D2E/DX2                !
 ! D36   D(5,7,8,10)          -178.009          estimate D2E/DX2                !
 ! D37   D(22,7,8,9)          -178.1979         estimate D2E/DX2                !
 ! D38   D(22,7,8,10)            1.6975         estimate D2E/DX2                !
 ! D39   D(5,7,32,33)           -0.0656         estimate D2E/DX2                !
 ! D40   D(8,7,32,33)          178.725          estimate D2E/DX2                !
 ! D41   D(7,8,9,13)           179.9661         estimate D2E/DX2                !
 ! D42   D(7,8,9,23)             0.1556         estimate D2E/DX2                !
 ! D43   D(10,8,9,13)            0.0703         estimate D2E/DX2                !
 ! D44   D(10,8,9,23)         -179.7403         estimate D2E/DX2                !
 ! D45   D(7,8,10,11)          179.9811         estimate D2E/DX2                !
 ! D46   D(7,8,10,24)            0.0955         estimate D2E/DX2                !
 ! D47   D(9,8,10,11)           -0.1159         estimate D2E/DX2                !
 ! D48   D(9,8,10,24)          179.9984         estimate D2E/DX2                !
 ! D49   D(8,9,13,12)            0.0176         estimate D2E/DX2                !
 ! D50   D(8,9,13,26)         -179.9568         estimate D2E/DX2                !
 ! D51   D(23,9,13,12)         179.8407         estimate D2E/DX2                !
 ! D52   D(23,9,13,26)          -0.1337         estimate D2E/DX2                !
 ! D53   D(8,10,11,12)           0.0742         estimate D2E/DX2                !
 ! D54   D(8,10,11,25)        -179.9231         estimate D2E/DX2                !
 ! D55   D(24,10,11,12)        179.9631         estimate D2E/DX2                !
 ! D56   D(24,10,11,25)         -0.0342         estimate D2E/DX2                !
 ! D57   D(10,11,12,13)          0.017          estimate D2E/DX2                !
 ! D58   D(10,11,12,27)        179.9959         estimate D2E/DX2                !
 ! D59   D(25,11,12,13)       -179.9857         estimate D2E/DX2                !
 ! D60   D(25,11,12,27)         -0.0068         estimate D2E/DX2                !
 ! D61   D(11,12,13,9)          -0.0617         estimate D2E/DX2                !
 ! D62   D(11,12,13,26)        179.9108         estimate D2E/DX2                !
 ! D63   D(27,12,13,9)         179.9612         estimate D2E/DX2                !
 ! D64   D(27,12,13,26)         -0.0662         estimate D2E/DX2                !
 ! D65   D(11,12,27,28)       -179.9583         estimate D2E/DX2                !
 ! D66   D(11,12,27,29)         59.3991         estimate D2E/DX2                !
 ! D67   D(11,12,27,30)        -59.3048         estimate D2E/DX2                !
 ! D68   D(13,12,27,28)          0.0191         estimate D2E/DX2                !
 ! D69   D(13,12,27,29)       -120.6236         estimate D2E/DX2                !
 ! D70   D(13,12,27,30)        120.6725         estimate D2E/DX2                !
 ! D71   D(21,31,33,32)          0.0024         estimate D2E/DX2                !
 ! D72   D(21,31,33,34)        179.9868         estimate D2E/DX2                !
 ! D73   D(22,32,33,31)          0.0124         estimate D2E/DX2                !
 ! D74   D(22,32,33,34)       -179.9723         estimate D2E/DX2                !
 ! D75   D(31,33,34,35)         -0.0507         estimate D2E/DX2                !
 ! D76   D(31,33,34,36)       -121.0047         estimate D2E/DX2                !
 ! D77   D(31,33,34,37)        120.9314         estimate D2E/DX2                !
 ! D78   D(32,33,34,35)        179.9338         estimate D2E/DX2                !
 ! D79   D(32,33,34,36)         58.9798         estimate D2E/DX2                !
 ! D80   D(32,33,34,37)        -59.0841         estimate D2E/DX2                !
 ! D81   D(33,34,35,38)        -60.4514         estimate D2E/DX2                !
 ! D82   D(33,34,35,39)        179.9983         estimate D2E/DX2                !
 ! D83   D(33,34,35,40)         60.4364         estimate D2E/DX2                !
 ! D84   D(36,34,35,38)         60.4148         estimate D2E/DX2                !
 ! D85   D(36,34,35,39)        -59.1354         estimate D2E/DX2                !
 ! D86   D(36,34,35,40)       -178.6974         estimate D2E/DX2                !
 ! D87   D(37,34,35,38)        178.6655         estimate D2E/DX2                !
 ! D88   D(37,34,35,39)         59.1153         estimate D2E/DX2                !
 ! D89   D(37,34,35,40)        -60.4467         estimate D2E/DX2                !
 --------------------------------------------------------------------------------
 Trust Radius=3.00D-01 FncErr=1.00D-07 GrdErr=1.00D-06
 Number of steps in this run=    212 maximum allowed number of steps=    240.
 GradGradGradGradGradGradGradGradGradGradGradGradGradGradGradGradGradGrad

                          Input orientation:                          
 ---------------------------------------------------------------------
 Center     Atomic      Atomic             Coordinates (Angstroms)
 Number     Number       Type             X           Y           Z
 ---------------------------------------------------------------------
      1          6           0       -1.991200    2.200040   -0.133560
      2          6           0       -0.644190    1.489500   -0.039420
      3          6           0        0.515750    2.489170   -0.100110
      4          7           0        1.799030    1.811100   -0.014190
      5          6           0        2.974880    2.502840   -0.048760
      6          8           0        2.943240    3.718280   -0.153170
      7          7           0        4.165710    1.825600    0.029030
      8          6           0        5.498020    2.381260    0.009440
      9          6           0        5.790410    3.764390   -0.054490
     10          6           0        6.583650    1.490720    0.059260
     11          6           0        7.900080    1.947900    0.044010
     12          6           0        8.192950    3.317720   -0.020250
     13          6           0        7.113030    4.233770   -0.069340
     14          1           0       -2.810550    1.452090   -0.086790
     15          1           0       -2.069410    2.753540   -1.093590
     16          1           0       -2.111680    2.912970    0.709810
     17          1           0       -0.558180    0.769470   -0.882230
     18          1           0       -0.600080    0.927580    0.918940
     19          1           0        0.423390    3.206540    0.745110
     20          1           0        0.462880    3.050490   -1.059130
     21          1           0        1.818790    0.673410    0.083580
     22          1           0        4.095810    0.686040    0.114920
     23          1           0        5.027420    4.518300   -0.091510
     24          1           0        6.421060    0.423120    0.109060
     25          1           0        8.702260    1.220260    0.082970
     26         17           0        7.323350    5.982740   -0.149880
     27          6           0        9.659980    3.706210   -0.031340
     28          9           0        9.874840    5.067880   -0.094690
     29          9           0       10.274400    3.125940   -1.126610
     30          9           0       10.263490    3.232100    1.119660
     31          8           0        1.810460   -1.387430    0.325470
     32          8           0        4.037700   -1.375940    0.355770
     33          6           0        2.853930   -2.021800    0.414770
     34          6           0        2.844100   -3.516880    0.590500
     35          6           0        1.434750   -4.106720    0.641310
     36          1           0        3.371290   -3.766970    1.535810
     37          1           0        3.395340   -3.977840   -0.256680
     38          1           0        0.868190   -3.679560    1.496290
     39          1           0        1.496880   -5.207690    0.771600
     40          1           0        0.891680   -3.891160   -0.303690
 ---------------------------------------------------------------------
                    Distance matrix (angstroms):
                    1          2          3          4          5
     1  C    0.000000
     2  C    1.525833   0.000000
     3  C    2.523789   1.532476   0.000000
     4  N    3.812003   2.464424   1.453949   0.000000
     5  C    4.976025   3.758273   2.459704   1.364669   0.000000
     6  O    5.162764   4.224932   2.721440   2.228423   1.220327
     7  N    6.170428   4.822114   3.712036   2.367119   1.372145
     8  C    7.492777   6.206800   4.984642   3.742749   2.526738
     9  C    7.937688   6.824912   5.426814   4.443881   3.085247
    10  C    8.606298   7.228514   6.151562   4.795897   3.749570
    11  C    9.896086   8.556964   7.405543   6.102861   4.957233
    12  C   10.245924   9.024289   7.722194   6.569030   5.281392
    13  C    9.328836   8.228388   6.824125   5.840460   4.485625
    14  H    1.110383   2.167201   3.484248   4.624109   5.880197
    15  H    1.110917   2.177228   2.782076   4.125303   5.157459
    16  H    1.110881   2.177416   2.781900   4.126978   5.159140
    17  H    2.158838   1.111832   2.173110   2.719361   4.022655
    18  H    2.159196   1.111824   2.173040   2.721593   4.024702
    19  H    2.759592   2.168742   1.112451   2.101470   2.763245
    20  H    2.757255   2.168433   1.112472   2.100782   2.762411
    21  H    4.110203   2.597576   2.242463   1.142054   2.168149
    22  H    6.277390   4.810090   4.014268   2.560787   2.141037
    23  H    7.391693   6.429891   4.946980   4.213954   2.876948
    24  H    8.601304   7.146815   6.259792   4.827509   4.028188
    25  H   10.740435   9.351128   8.286290   6.929150   5.870711
    26  Cl  10.053354   9.147847   7.651858   6.923807   5.570379
    27  C   11.748574  10.539914   9.225121   8.086178   6.792567
    28  F   12.207740  11.111159   9.707849   8.708146   7.361453
    29  F   12.340518  11.093941   9.833129   8.648594   7.404931
    30  F   12.361761  11.106647   9.851813   8.657479   7.417605
    31  O    5.247215   3.799365   4.109187   3.216534   4.078005
    32  O    7.026714   5.503364   5.248908   3.912255   4.042050
    33  C    6.449797   4.977184   5.106960   3.998493   4.549929
    34  C    7.522471   6.134232   6.478487   5.463075   6.054980
    35  C    7.218918   6.008582   6.700748   5.965147   6.821619
    36  H    8.194407   6.799699   7.068920   5.999114   6.479083
    37  H    8.197327   6.801236   7.080874   6.009895   6.497633
    38  H    6.738117   5.600436   6.381688   5.770213   6.711735
    39  H    8.237747   7.077732   7.807954   7.069100   7.893652
    40  H    6.741117   5.601807   6.394637   5.781251   6.729632
                    6          7          8          9         10
     6  O    0.000000
     7  N    2.260502   0.000000
     8  C    2.888073   1.443673   0.000000
     9  C    2.849253   2.530915   1.415142   0.000000
    10  C    4.273141   2.441207   1.405040   2.410756   0.000000
    11  C    5.267199   3.736402   2.441083   2.785686   1.393641
    12  C    5.266647   4.295057   2.853154   2.443949   2.436000
    13  C    4.202369   3.807316   2.458914   1.403518   2.796624
    14  H    6.184345   6.987212   8.360918   8.906418   9.395415
    15  H    5.190547   6.402974   7.656452   7.992391   8.820387
    16  H    5.190903   6.407141   7.660337   7.984491   8.834861
    17  H    4.635402   4.925540   6.330126   7.068189   7.239637
    18  H    4.636005   4.930632   6.334603   7.059279   7.256869
    19  H    2.723679   4.052743   5.193666   5.454857   6.431425
    20  H    2.723764   4.049123   5.190602   5.468229   6.414632
    21  H    3.254485   2.615062   4.056967   5.034579   4.834509
    22  H    3.254961   1.144928   2.202519   3.518040   2.615331
    23  H    2.233303   2.829789   2.190570   1.073268   3.407466
    24  H    4.798133   2.657058   2.167081   3.404196   1.081057
    25  H    6.281893   4.577077   3.408883   3.869155   2.135935
    26  Cl   4.930837   5.223458   4.040776   2.698163   4.557317
    27  C    6.717856   5.807525   4.367959   3.870077   3.792151
    28  F    7.062005   6.566723   5.136665   4.287572   4.863302
    29  F    7.419189   6.351573   4.965779   4.654377   4.207359
    30  F    7.445974   6.352215   4.966510   4.655148   4.206908
    31  O    5.251720   3.994827   5.282140   6.521167   5.580140
    32  O    5.235259   3.220715   4.045866   5.446402   3.845454
    33  C    5.768800   4.083142   5.151936   6.505622   5.135659
    34  C    7.273954   5.532088   6.493765   7.881221   6.272361
    35  C    8.008581   6.559379   7.681361   9.022765   7.627666
    36  H    7.685366   5.846223   6.682329   8.068617   6.335832
    37  H    7.710082   5.861315   6.703002   8.106748   6.338003
    38  H    7.858409   6.582802   7.770430   9.057900   7.839855
    39  H    9.089560   7.559182   8.612907   9.980734   8.441052
    40  H    7.882584   6.596311   7.788432   9.092145   7.841868
                   11         12         13         14         15
    11  C    0.000000
    12  C    1.402251   0.000000
    13  C    2.420227   1.416963   0.000000
    14  H   10.722898  11.160735  10.306090   0.000000
    15  H   10.066475  10.333750   9.357210   1.804635   0.000000
    16  H   10.080178  10.338385   9.351303   1.804761   1.810927
    17  H    8.590040   9.155264   8.456337   2.484324   2.503003
    18  H    8.605770   9.160362   8.449832   2.484508   3.089229
    19  H    7.614237   7.807957   6.816877   3.772071   3.130508
    20  H    7.598985   7.804144   6.826736   3.770368   2.549874
    21  H    6.213532   6.901672   6.381890   4.697463   4.564074
    22  H    4.008714   4.871403   4.660897   6.951642   6.614000
    23  H    3.857136   3.386303   2.105046   8.416379   7.381297
    24  H    2.125250   3.396325   3.877074   9.290843   8.886242
    25  H    1.083730   2.160877   3.410292  11.516395  10.943679
    26  Cl   4.080459   2.806304   1.763411  11.100752   9.977087
    27  C    2.488891   1.517638   2.601292  12.672736  11.815860
    28  F    3.695022   2.428447   2.885130  13.190645  12.207337
    29  F    2.897503   2.365004   3.512744  13.232495  12.349470
    30  F    2.896878   2.365135   3.513184  13.249697  12.539056
    31  O    6.948893   7.936885   7.737636   5.439353   5.849338
    32  O    5.105202   6.279963   6.411491   7.422408   7.513324
    33  C    6.431144   7.563389   7.583301   6.663768   7.022699
    34  C    7.464945   8.700286   8.873090   7.558072   8.142291
    35  C    8.877820  10.061473  10.114923   7.032288   7.896340
    36  H    7.442791   8.709912   8.977136   8.251458   8.889995
    37  H    7.449664   8.734882   9.015922   8.247792   8.710648
    38  H    9.122768  10.242750  10.201471   6.509462   7.531384
    39  H    9.629788  10.869544  11.017690   7.977685   8.920681
    40  H    9.128701  10.264348  10.235947   6.504143   7.317379
                   16         17         18         19         20
    16  H    0.000000
    17  H    3.089101   0.000000
    18  H    2.504085   1.808582   0.000000
    19  H    2.552256   3.090473   2.504270   0.000000
    20  H    3.126727   2.505376   3.090209   1.811406   0.000000
    21  H    4.566879   2.567490   2.571646   2.966734   2.965601
    22  H    6.621634   4.760346   4.770343   4.498525   4.490790
    23  H    7.361110   6.773322   6.751521   4.859809   4.891399
    24  H    8.908867   7.057790   7.085675   6.642592   6.615712
    25  H   10.963553   9.321511   9.344412   8.539521   8.517131
    26  Cl   9.959033   9.478029   9.459269   7.491178   7.516041
    27  C   11.821612  10.665798  10.672050   9.282626   9.277552
    28  F   12.205225  11.311253  11.309000   9.669527   9.673934
    29  F   12.523289  11.088619  11.281462  10.027573   9.812042
    30  F   12.386067  11.277440  11.107126   9.847259  10.041517
    31  O    5.833039   3.423626   3.394434   4.817118   4.840271
    32  O    7.505662   5.220876   5.208874   5.849269   5.862982
    33  C    7.006874   4.595203   4.569816   5.775135   5.798071
    34  C    8.118926   5.667207   5.632359   7.147595   7.177871
    35  C    7.864980   5.483628   5.437075   7.383590   7.420356
    36  H    8.681407   6.470467   6.179895   7.612172   7.853045
    37  H    8.873817   6.209556   6.434952   7.839093   7.657720
    38  H    7.277337   5.242686   4.869794   6.941217   7.210272
    39  H    8.886543   6.533366   6.485406   8.482473   8.521635
    40  H    7.506233   4.915107   5.190417   7.190036   6.995789
                   21         22         23         24         25
    21  H    0.000000
    22  H    2.277271   0.000000
    23  H    5.010902   3.949269   0.000000
    24  H    4.609141   2.340075   4.330469   0.000000
    25  H    6.905158   4.637434   4.940846   2.416606   0.000000
    26  Cl   7.651383   6.208234   2.723837   5.638311   4.963550
    27  C    8.408052   6.332678   4.703586   4.614000   2.666504
    28  F    9.178403   7.255456   4.878476   5.791710   4.026250
    29  F    8.886889   6.757920   5.526382   4.866246   2.750695
    30  F    8.884442   6.747755   5.526090   4.865794   2.749485
    31  O    2.075004   3.092965   6.737978   4.958080   7.372636
    32  O    3.032735   2.076812   5.993469   2.996312   5.345353
    33  C    2.906090   2.994090   6.910375   4.335379   6.695073
    34  C    4.343588   4.411065   8.354409   5.343223   7.550902
    35  C    4.827856   5.507166   9.372047   6.757664   9.028021
    36  H    4.923028   4.730027   8.604454   5.375274   7.443282
    37  H    4.922948   4.730806   8.653055   5.353242   7.436330
    38  H    4.674156   5.602158   9.328730   7.042070   9.347639
    39  H    5.929952   6.474698  10.382897   7.509496   9.680406
    40  H    4.673843   5.602896   9.373814   7.025483   9.342445
                   26         27         28         29         30
    26  Cl   0.000000
    27  C    3.264426   0.000000
    28  F    2.711110   1.379972   0.000000
    29  F    4.221848   1.383417   2.235092   0.000000
    30  F    4.221632   1.383404   2.235125   2.248804   0.000000
    31  O    9.216145   9.364158  10.338365   9.701408   9.665636
    32  O    8.074735   7.588685   8.706201   7.833314   7.783188
    33  C    9.185162   8.906819   9.990810   9.161793   9.110539
    34  C   10.528752   9.950675  11.117504  10.113599  10.043709
    35  C   11.708919  11.364363  12.487998  11.557522  11.490594
    36  H   10.654444   9.892017  11.090954  10.112053   9.831713
    37  H   10.707653   9.916709  11.128127   9.926829  10.052315
    38  H   11.736226  11.583558  12.655776  11.902572  11.669814
    39  H   12.650004  12.113568  13.286384  12.251426  12.173933
    40  H   11.784903  11.605055  12.688784  11.745311  11.857385
                   31         32         33         34         35
    31  O    0.000000
    32  O    2.227476   0.000000
    33  C    1.224430   1.349788   0.000000
    34  C    2.381850   2.462398   1.505404   0.000000
    35  C    2.763232   3.783390   2.532249   1.528647   0.000000
    36  H    3.092462   2.748385   2.137758   1.110894   2.160034
    37  H    3.092081   2.749110   2.137770   1.110884   2.160303
    38  H    2.740904   4.080839   2.803751   2.179711   1.111057
    39  H    3.858983   4.616383   3.481208   2.169479   1.110392
    40  H    2.740194   4.081502   2.803768   2.179818   1.111043
                   36         37         38         39         40
    36  H    0.000000
    37  H    1.805011   0.000000
    38  H    2.504938   3.090042   0.000000
    39  H    2.484573   2.484762   1.804330   0.000000
    40  H    3.089927   2.505601   1.812527   1.804374   0.000000
 Stoichiometry    C14H17ClF3N2O3(1-)
 Framework group  C1[X(C14H17ClF3N2O3)]
 Deg. of freedom   114
 Full point group                 C1      NOp   1
 Largest Abelian subgroup         C1      NOp   1
 Largest concise Abelian subgroup C1      NOp   1
                         Standard orientation:                         
 ---------------------------------------------------------------------
 Center     Atomic      Atomic             Coordinates (Angstroms)
 Number     Number       Type             X           Y           Z
 ---------------------------------------------------------------------
      1          6           0       -5.768409   -3.730301    0.036183
      2          6           0       -4.976916   -2.425808    0.035417
      3          6           0       -3.467867   -2.692561    0.025435
      4          7           0       -2.714291   -1.449146    0.028561
      5          6           0       -1.349656   -1.442236    0.021637
      6          8           0       -0.752824   -2.506607    0.011489
      7          7           0       -0.674835   -0.247535    0.030952
      8          6           0        0.754259   -0.042974    0.024910
      9          6           0        1.713889   -1.081325   -0.034784
     10          6           0        1.230613    1.277708    0.079899
     11          6           0        2.595630    1.558706    0.078417
     12          6           0        3.548884    0.531946    0.020303
     13          6           0        3.090443   -0.807552   -0.037681
     14          1           0       -6.855835   -3.505788    0.043255
     15          1           0       -5.523292   -4.330018    0.938621
     16          1           0       -5.533797   -4.325052   -0.872269
     17          1           0       -5.244787   -1.842563    0.943293
     18          1           0       -5.255580   -1.836480   -0.865246
     19          1           0       -3.206884   -3.276562   -0.884717
     20          1           0       -3.197016   -3.285914    0.926638
     21          1           0       -3.281414   -0.457897    0.037827
     22          1           0       -1.319581    0.698395    0.050446
     23          1           0        1.444558   -2.119113   -0.083385
     24          1           0        0.544098    2.111486    0.126770
     25          1           0        2.911989    2.594256    0.123408
     26         17           0        4.166930   -2.202028   -0.116612
     27          6           0        5.008080    0.949028    0.024067
     28          9           0        5.890120   -0.110572   -0.035733
     29          9           0        5.273373    1.660212    1.180648
     30          9           0        5.248945    1.766729   -1.065499
     31          8           0       -4.348623    1.320964   -0.010752
     32          8           0       -2.430109    2.452684    0.002025
     33          6           0       -3.778868    2.404720   -0.019809
     34          6           0       -4.556359    3.693318   -0.055371
     35          6           0       -6.070064    3.481396   -0.078739
     36          1           0       -4.260302    4.261967   -0.962606
     37          1           0       -4.292061    4.292632    0.841865
     38          1           0       -6.365028    2.903840   -0.980888
     39          1           0       -6.583032    4.465863   -0.104435
     40          1           0       -6.397410    2.934167    0.831096
 ---------------------------------------------------------------------
 Rotational constants (GHZ):      0.3207089      0.0890354      0.0708068
 General basis read from cards:  (6D, 7F)
 There are   475 symmetry adapted cartesian basis functions of A   symmetry.
 There are   475 symmetry adapted basis functions of A   symmetry.
   475 basis functions,   828 primitive gaussians,   475 cartesian basis functions
    92 alpha electrons       92 beta electrons
       nuclear repulsion energy      2027.1071409121 Hartrees.
 NAtoms=   40 NActive=   40 NUniq=   40 SFac= 1.00D+00 NAtFMM=   60 NAOKFM=F Big=F
 Integral buffers will be    131072 words long.
 Raffenetti 2 integral format.
 Two-electron integral symmetry is turned on.
 ------------------------------------------------------------------------------
 Polarizable Continuum Model (PCM)
 =================================
 Model                : PCM (using non-symmetric T matrix).
 Atomic radii         : SMD-Coulomb.
 Polarization charges : Total charges.
 Charge compensation  : None.
 Solution method      : On-the-fly selection.
 Cavity type          : VdW (van der Waals Surface) (Alpha=1.000).
 Cavity algorithm     : GePol (No added spheres)
                        Default sphere list used, NSphG=   40.
                        Lebedev-Laikov grids with approx.  5.0 points / Ang**2.
                        Smoothing algorithm: York/Karplus (Gamma=1.0000).
                        Polarization charges: spherical gaussians, with
                                              point-specific exponents (IZeta= 3).
                        Self-potential: point-specific (ISelfS= 7).
                        Self-field    : sphere-specific E.n sum rule (ISelfD= 2).
 1st derivatives      : Analytical E(r).r(x)/FMM algorithm (CHGder, D1EAlg=3).
                        Cavity 1st derivative terms included.
 Solvent              : n-Pentadecane, Eps=   2.033300 Eps(inf)=   2.049192
 ------------------------------------------------------------------------------
 ------------------------------------------------------------------------------
 Atomic radii for non-electrostatic terms: SMD-CDS.
 ------------------------------------------------------------------------------
 Nuclear repulsion after PCM non-electrostatic terms =     2027.0975240605 Hartrees.
 One-electron integrals computed using PRISM.
 NBasis=   475 RedAO= T EigKep=  1.82D-06  NBF=   475
 NBsUse=   473 1.00D-06 EigRej=  9.60D-07 NBFU=   473
 ExpMin= 4.38D-02 ExpMax= 2.52D+04 ExpMxC= 3.78D+03 IAcc=3 IRadAn=         5 AccDes= 0.00D+00
 Harris functional with IExCor= 1009 and IRadAn=       5 diagonalized for initial guess.
 HarFok:  IExCor= 1009 AccDes= 0.00D+00 IRadAn=         5 IDoV= 1 UseB2=F ITyADJ=14
 ICtDFT=  3500011 ScaDFX=  1.000000  1.000000  1.000000  1.000000
 FoFCou: FMM=F IPFlag=           0 FMFlag=      100000 FMFlg1=           0
         NFxFlg=           0 DoJE=T BraDBF=F KetDBF=T FulRan=T
         wScrn=  0.000000 ICntrl=     500 IOpCl=  0 I1Cent=   200000004 NGrid=           0
         NMat0=    1 NMatS0=      1 NMatT0=    0 NMatD0=    1 NMtDS0=    0 NMtDT0=    0
 Petite list used in FoFCou.
 Requested convergence on RMS density matrix=1.00D-08 within 128 cycles.
 Requested convergence on MAX density matrix=1.00D-06.
 Requested convergence on             energy=1.00D-06.
 No special actions if energy rises.
 Inv3:  Mode=1 IEnd=    32630412.
 Iteration    1 A*A^-1 deviation from unit magnitude is 6.66D-15 for    392.
 Iteration    1 A*A^-1 deviation from orthogonality  is 3.42D-15 for   2052    379.
 Iteration    1 A^-1*A deviation from unit magnitude is 6.22D-15 for   1232.
 Iteration    1 A^-1*A deviation from orthogonality  is 7.95D-15 for   1900   1876.
 Error on total polarization charges =  0.02520
 SCF Done:  E(RM062X) =  -1638.32570833     A.U. after   16 cycles
            NFock= 16  Conv=0.38D-08     -V/T= 2.0074
 SMD-CDS (non-electrostatic) energy       (kcal/mol) =      -6.03
 (included in total energy above)

 **********************************************************************

            Population analysis using the SCF density.

 **********************************************************************

 Orbital symmetries:
       Occupied  (A) (A) (A) (A) (A) (A) (A) (A) (A) (A) (A) (A)
                 (A) (A) (A) (A) (A) (A) (A) (A) (A) (A) (A) (A)
                 (A) (A) (A) (A) (A) (A) (A) (A) (A) (A) (A) (A)
                 (A) (A) (A) (A) (A) (A) (A) (A) (A) (A) (A) (A)
                 (A) (A) (A) (A) (A) (A) (A) (A) (A) (A) (A) (A)
                 (A) (A) (A) (A) (A) (A) (A) (A) (A) (A) (A) (A)
                 (A) (A) (A) (A) (A) (A) (A) (A) (A) (A) (A) (A)
                 (A) (A) (A) (A) (A) (A) (A) (A)
       Virtual   (A) (A) (A) (A) (A) (A) (A) (A) (A) (A) (A) (A)
                 (A) (A) (A) (A) (A) (A) (A) (A) (A) (A) (A) (A)
                 (A) (A) (A) (A) (A) (A) (A) (A) (A) (A) (A) (A)
                 (A) (A) (A) (A) (A) (A) (A) (A) (A) (A) (A) (A)
                 (A) (A) (A) (A) (A) (A) (A) (A) (A) (A) (A) (A)
                 (A) (A) (A) (A) (A) (A) (A) (A) (A) (A) (A) (A)
                 (A) (A) (A) (A) (A) (A) (A) (A) (A) (A) (A) (A)
                 (A) (A) (A) (A) (A) (A) (A) (A) (A) (A) (A) (A)
                 (A) (A) (A) (A) (A) (A) (A) (A) (A) (A) (A) (A)
                 (A) (A) (A) (A) (A) (A) (A) (A) (A) (A) (A) (A)
                 (A) (A) (A) (A) (A) (A) (A) (A) (A) (A) (A) (A)
                 (A) (A) (A) (A) (A) (A) (A) (A) (A) (A) (A) (A)
                 (A) (A) (A) (A) (A) (A) (A) (A) (A) (A) (A) (A)
                 (A) (A) (A) (A) (A) (A) (A) (A) (A) (A) (A) (A)
                 (A) (A) (A) (A) (A) (A) (A) (A) (A) (A) (A) (A)
                 (A) (A) (A) (A) (A) (A) (A) (A) (A) (A) (A) (A)
                 (A) (A) (A) (A) (A) (A) (A) (A) (A) (A) (A) (A)
                 (A) (A) (A) (A) (A) (A) (A) (A) (A) (A) (A) (A)
                 (A) (A) (A) (A) (A) (A) (A) (A) (A) (A) (A) (A)
                 (A) (A) (A) (A) (A) (A) (A) (A) (A) (A) (A) (A)
                 (A) (A) (A) (A) (A) (A) (A) (A) (A) (A) (A) (A)
                 (A) (A) (A) (A) (A) (A) (A) (A) (A) (A) (A) (A)
                 (A) (A) (A) (A) (A) (A) (A) (A) (A) (A) (A) (A)
                 (A) (A) (A) (A) (A) (A) (A) (A) (A) (A) (A) (A)
                 (A) (A) (A) (A) (A) (A) (A) (A) (A) (A) (A) (A)
                 (A) (A) (A) (A) (A) (A) (A) (A) (A) (A) (A) (A)
                 (A) (A) (A) (A) (A) (A) (A) (A) (A) (A) (A) (A)
                 (A) (A) (A) (A) (A) (A) (A) (A) (A) (A) (A) (A)
                 (A) (A) (A) (A) (A) (A) (A) (A) (A) (A) (A) (A)
                 (A) (A) (A) (A) (A) (A) (A) (A) (A) (A) (A) (A)
                 (A) (A) (A) (A) (A) (A) (A) (A) (A) (A) (A) (A)
                 (A) (A) (A) (A) (A) (A) (A) (A) (A)
 The electronic state is 1-A.
 Alpha  occ. eigenvalues -- -102.63696 -25.26844 -25.26759 -25.26756 -19.54213
 Alpha  occ. eigenvalues --  -19.52404 -19.49983 -14.74418 -14.71904 -10.78702
 Alpha  occ. eigenvalues --  -10.61743 -10.59521 -10.57946 -10.56460 -10.54999
 Alpha  occ. eigenvalues --  -10.53646 -10.52893 -10.52153 -10.52014 -10.50065
 Alpha  occ. eigenvalues --  -10.50025 -10.48556 -10.48387  -9.78317  -7.50732
 Alpha  occ. eigenvalues --   -7.50064  -7.50024  -1.40950  -1.33089  -1.33034
 Alpha  occ. eigenvalues --   -1.11503  -1.07611  -0.98113  -0.95799  -0.94603
 Alpha  occ. eigenvalues --   -0.94334  -0.89820  -0.84535  -0.82553  -0.80247
 Alpha  occ. eigenvalues --   -0.79829  -0.76361  -0.72252  -0.68170  -0.66890
 Alpha  occ. eigenvalues --   -0.66050  -0.64505  -0.63471  -0.62522  -0.60731
 Alpha  occ. eigenvalues --   -0.59570  -0.55568  -0.54090  -0.53246  -0.52925
 Alpha  occ. eigenvalues --   -0.51362  -0.50324  -0.50231  -0.49742  -0.49498
 Alpha  occ. eigenvalues --   -0.48406  -0.47885  -0.47778  -0.46735  -0.46290
 Alpha  occ. eigenvalues --   -0.45745  -0.45595  -0.45033  -0.43301  -0.43160
 Alpha  occ. eigenvalues --   -0.41631  -0.40845  -0.40593  -0.40298  -0.38458
 Alpha  occ. eigenvalues --   -0.38288  -0.37588  -0.37291  -0.37009  -0.35197
 Alpha  occ. eigenvalues --   -0.34901  -0.34729  -0.33810  -0.33732  -0.32026
 Alpha  occ. eigenvalues --   -0.27952  -0.26769  -0.25299  -0.24564  -0.23003
 Alpha  occ. eigenvalues --   -0.22513  -0.22022
 Alpha virt. eigenvalues --    0.04148   0.04970   0.05503   0.06581   0.06707
 Alpha virt. eigenvalues --    0.07393   0.07769   0.08449   0.08640   0.08856
 Alpha virt. eigenvalues --    0.09233   0.09370   0.09905   0.10414   0.10784
 Alpha virt. eigenvalues --    0.10830   0.11325   0.11456   0.11988   0.12243
 Alpha virt. eigenvalues --    0.13047   0.13673   0.13908   0.14092   0.14108
 Alpha virt. eigenvalues --    0.14720   0.14899   0.15120   0.15440   0.15981
 Alpha virt. eigenvalues --    0.16470   0.16859   0.16996   0.17082   0.17268
 Alpha virt. eigenvalues --    0.17769   0.18046   0.18144   0.18556   0.19097
 Alpha virt. eigenvalues --    0.19462   0.20454   0.20562   0.20815   0.21136
 Alpha virt. eigenvalues --    0.21836   0.22629   0.22960   0.23025   0.24047
 Alpha virt. eigenvalues --    0.24096   0.24258   0.25034   0.25205   0.25274
 Alpha virt. eigenvalues --    0.25598   0.26653   0.26999   0.27162   0.27508
 Alpha virt. eigenvalues --    0.27716   0.27834   0.28778   0.28815   0.29205
 Alpha virt. eigenvalues --    0.29426   0.29784   0.29919   0.30033   0.30335
 Alpha virt. eigenvalues --    0.30662   0.31272   0.31866   0.31925   0.32518
 Alpha virt. eigenvalues --    0.32735   0.33607   0.33695   0.33841   0.33972
 Alpha virt. eigenvalues --    0.34341   0.34963   0.35092   0.35316   0.35616
 Alpha virt. eigenvalues --    0.36459   0.36856   0.37083   0.37546   0.37968
 Alpha virt. eigenvalues --    0.38403   0.38694   0.38949   0.39156   0.39318
 Alpha virt. eigenvalues --    0.40243   0.40449   0.40684   0.40887   0.41597
 Alpha virt. eigenvalues --    0.41616   0.42344   0.42624   0.42932   0.43743
 Alpha virt. eigenvalues --    0.44083   0.44192   0.45020   0.45431   0.45698
 Alpha virt. eigenvalues --    0.46045   0.47093   0.47482   0.48386   0.48623
 Alpha virt. eigenvalues --    0.49021   0.49698   0.50251   0.51043   0.51836
 Alpha virt. eigenvalues --    0.53235   0.54088   0.54858   0.55434   0.56517
 Alpha virt. eigenvalues --    0.58244   0.59433   0.60589   0.60968   0.61930
 Alpha virt. eigenvalues --    0.63535   0.65170   0.66937   0.67231   0.69778
 Alpha virt. eigenvalues --    0.72754   0.74155   0.75127   0.75313   0.76108
 Alpha virt. eigenvalues --    0.76287   0.76895   0.76952   0.78491   0.79936
 Alpha virt. eigenvalues --    0.80443   0.80917   0.81133   0.81957   0.82165
 Alpha virt. eigenvalues --    0.82396   0.83530   0.84506   0.85515   0.86127
 Alpha virt. eigenvalues --    0.86287   0.86922   0.87502   0.87836   0.88453
 Alpha virt. eigenvalues --    0.89634   0.90635   0.91370   0.93210   0.93710
 Alpha virt. eigenvalues --    0.94160   0.95001   0.95659   0.98456   0.98838
 Alpha virt. eigenvalues --    0.99334   1.00741   1.01740   1.02505   1.03192
 Alpha virt. eigenvalues --    1.04553   1.04964   1.05246   1.06363   1.06624
 Alpha virt. eigenvalues --    1.07148   1.07566   1.10244   1.10816   1.11338
 Alpha virt. eigenvalues --    1.11702   1.12014   1.13213   1.13695   1.14667
 Alpha virt. eigenvalues --    1.16556   1.17966   1.19120   1.20413   1.20917
 Alpha virt. eigenvalues --    1.21084   1.22348   1.22615   1.23736   1.24586
 Alpha virt. eigenvalues --    1.25293   1.26092   1.26919   1.27861   1.28808
 Alpha virt. eigenvalues --    1.29783   1.32302   1.32874   1.35650   1.35965
 Alpha virt. eigenvalues --    1.37718   1.37843   1.38721   1.39258   1.41915
 Alpha virt. eigenvalues --    1.42508   1.44830   1.45844   1.46258   1.46510
 Alpha virt. eigenvalues --    1.47606   1.50533   1.51508   1.51560   1.52591
 Alpha virt. eigenvalues --    1.52908   1.53247   1.53619   1.54628   1.55553
 Alpha virt. eigenvalues --    1.56892   1.57906   1.61510   1.61759   1.62420
 Alpha virt. eigenvalues --    1.62532   1.63776   1.64304   1.66901   1.67648
 Alpha virt. eigenvalues --    1.68276   1.69900   1.71468   1.71903   1.72596
 Alpha virt. eigenvalues --    1.73375   1.77482   1.77622   1.78248   1.78590
 Alpha virt. eigenvalues --    1.79670   1.80038   1.80905   1.83067   1.83638
 Alpha virt. eigenvalues --    1.83792   1.87253   1.88713   1.90480   1.90885
 Alpha virt. eigenvalues --    1.91237   1.91483   1.92287   1.93052   1.93320
 Alpha virt. eigenvalues --    1.94118   1.94651   1.94919   1.94984   1.95360
 Alpha virt. eigenvalues --    1.98059   1.99014   1.99847   2.00855   2.01006
 Alpha virt. eigenvalues --    2.02527   2.02997   2.03984   2.04122   2.04951
 Alpha virt. eigenvalues --    2.07022   2.08366   2.08634   2.09588   2.09775
 Alpha virt. eigenvalues --    2.10817   2.10921   2.11975   2.12608   2.12882
 Alpha virt. eigenvalues --    2.12972   2.13961   2.14943   2.16782   2.17225
 Alpha virt. eigenvalues --    2.18305   2.19388   2.20014   2.21057   2.21488
 Alpha virt. eigenvalues --    2.22391   2.23264   2.26097   2.27141   2.27762
 Alpha virt. eigenvalues --    2.30523   2.30861   2.32641   2.34398   2.36008
 Alpha virt. eigenvalues --    2.36934   2.37463   2.37602   2.40991   2.41157
 Alpha virt. eigenvalues --    2.43178   2.43419   2.43584   2.44633   2.45484
 Alpha virt. eigenvalues --    2.46940   2.51995   2.52142   2.54754   2.62595
 Alpha virt. eigenvalues --    2.62680   2.63517   2.65106   2.68166   2.68732
 Alpha virt. eigenvalues --    2.69161   2.71203   2.71725   2.76158   2.79528
 Alpha virt. eigenvalues --    2.80065   2.80593   2.81261   2.83053   2.84671
 Alpha virt. eigenvalues --    2.86043   2.89050   2.91250   2.95235   2.96706
 Alpha virt. eigenvalues --    3.01534   3.05880   3.11763   3.16356   3.17470
 Alpha virt. eigenvalues --    3.18592   3.24332   3.27132   3.30784   3.31308
 Alpha virt. eigenvalues --    3.33612   3.38624   3.44553   4.25934   4.29230
 Alpha virt. eigenvalues --    4.31012   4.33560   4.35491   4.39862   4.44650
 Alpha virt. eigenvalues --    4.45959   4.47031   4.49042   4.50762   4.52602
 Alpha virt. eigenvalues --    4.54196   4.59022   4.64146   4.67687   4.70497
 Alpha virt. eigenvalues --    4.77725   4.80798   4.84612   5.48141   6.08890
 Alpha virt. eigenvalues --    6.85871
          Condensed to atoms (all electrons):
               1          2          3          4          5          6
     1  C    5.814328  -0.183156   0.031132  -0.008308  -0.056777  -0.000914
     2  C   -0.183156   6.354824  -0.539395  -0.063608   0.208512   0.025693
     3  C    0.031132  -0.539395   7.417023   0.365455  -0.868998  -0.114727
     4  N   -0.008308  -0.063608   0.365455   7.734826   0.450489  -0.191629
     5  C   -0.056777   0.208512  -0.868998   0.450489   7.034628   0.594126
     6  O   -0.000914   0.025693  -0.114727  -0.191629   0.594126   8.349356
     7  N   -0.004457   0.020012  -0.231996  -0.373579   0.213633  -0.073750
     8  C   -0.005436   0.027200  -0.290717  -0.185448  -0.129251  -0.423832
     9  C   -0.007587  -0.019311  -0.189042  -0.001686  -0.410407   0.449817
    10  C    0.000582   0.013724  -0.055505  -0.070281  -0.682864  -0.113678
    11  C    0.000304   0.001111   0.020195  -0.002196   0.280199  -0.023474
    12  C   -0.000515   0.002017  -0.062503  -0.022493  -0.868274   0.004609
    13  C   -0.001088  -0.002973  -0.054410   0.001720  -0.229833   0.145668
    14  H    0.449696  -0.125914   0.029009   0.000316  -0.002321   0.000005
    15  H    0.422278  -0.068957  -0.009736   0.000109   0.000167  -0.000040
    16  H    0.421436  -0.068442  -0.008712   0.000130  -0.000513  -0.000042
    17  H   -0.030154   0.417166  -0.068232   0.005399  -0.009184  -0.000186
    18  H   -0.030489   0.419903  -0.074371   0.005252  -0.004985  -0.000157
    19  H   -0.007152  -0.054222   0.449775  -0.055754  -0.027003   0.000527
    20  H   -0.004887  -0.055921   0.458724  -0.055494  -0.034479   0.000464
    21  H   -0.001380  -0.000773  -0.059659   0.180430   0.030391   0.004553
    22  H    0.000028  -0.001038   0.007785   0.030729  -0.035335   0.003327
    23  H    0.000010   0.000006   0.002211   0.000641   0.014844  -0.002143
    24  H   -0.000002   0.000022  -0.000461   0.000354  -0.008963   0.000041
    25  H    0.000000   0.000000   0.000045   0.000014   0.006133  -0.000001
    26  Cl   0.000010  -0.000093   0.001512   0.001035   0.007982  -0.002326
    27  C   -0.000017   0.000051  -0.003297   0.000502  -0.120117   0.002213
    28  F   -0.000000   0.000000   0.000001   0.000000   0.000273   0.000003
    29  F   -0.000000   0.000000  -0.000003  -0.000000  -0.000375  -0.000000
    30  F   -0.000000   0.000000  -0.000003  -0.000000  -0.000438   0.000000
    31  O    0.004745   0.013483  -0.020090  -0.017486   0.009808   0.000150
    32  O   -0.000375  -0.004853   0.018519   0.010557   0.003558  -0.000421
    33  C   -0.003863  -0.010041   0.009209  -0.007640  -0.008426  -0.000805
    34  C    0.001934  -0.002809   0.020878  -0.011922  -0.023865  -0.000504
    35  C    0.000424   0.003306  -0.006017   0.002331   0.002940   0.000039
    36  H   -0.000000  -0.000005   0.000028   0.000022  -0.000125  -0.000000
    37  H    0.000001   0.000002   0.000017   0.000014  -0.000122  -0.000000
    38  H   -0.000004  -0.000038  -0.000086  -0.000014  -0.000009  -0.000000
    39  H   -0.000003  -0.000008   0.000005   0.000006   0.000011   0.000000
    40  H   -0.000011  -0.000049  -0.000074  -0.000009  -0.000016  -0.000000
               7          8          9         10         11         12
     1  C   -0.004457  -0.005436  -0.007587   0.000582   0.000304  -0.000515
     2  C    0.020012   0.027200  -0.019311   0.013724   0.001111   0.002017
     3  C   -0.231996  -0.290717  -0.189042  -0.055505   0.020195  -0.062503
     4  N   -0.373579  -0.185448  -0.001686  -0.070281  -0.002196  -0.022493
     5  C    0.213633  -0.129251  -0.410407  -0.682864   0.280199  -0.868274
     6  O   -0.073750  -0.423832   0.449817  -0.113678  -0.023474   0.004609
     7  N    7.866259   0.305928  -0.176182  -0.032409   0.015898  -0.104190
     8  C    0.305928  12.334301   0.015295  -0.215358  -1.146603  -0.662499
     9  C   -0.176182   0.015295  11.279311  -3.760710  -0.557837  -2.397325
    10  C   -0.032409  -0.215358  -3.760710  14.340626  -0.944147   0.402050
    11  C    0.015898  -1.146603  -0.557837  -0.944147  10.302539   0.448970
    12  C   -0.104190  -0.662499  -2.397325   0.402050   0.448970  14.359300
    13  C    0.091347  -2.237987   2.030730  -2.997834  -2.998608  -2.800400
    14  H    0.000008  -0.000036  -0.000003  -0.000000   0.000000  -0.000000
    15  H    0.000011   0.000022  -0.000039   0.000004   0.000000  -0.000000
    16  H    0.000007   0.000012  -0.000052   0.000006   0.000000  -0.000000
    17  H   -0.000283  -0.000732  -0.000334   0.000179   0.000011  -0.000004
    18  H   -0.000108  -0.000685  -0.000087   0.000094   0.000005  -0.000002
    19  H   -0.000251  -0.000255  -0.001617   0.000384   0.000004   0.000012
    20  H   -0.000248  -0.000364  -0.003272   0.000360   0.000043  -0.000071
    21  H    0.029452   0.008450  -0.003027   0.004652   0.000634  -0.000026
    22  H    0.150339   0.001545   0.048734  -0.053312   0.003268   0.007717
    23  H   -0.013953  -0.014000   0.250805   0.023728  -0.027825   0.073343
    24  H   -0.004684  -0.047108   0.015505   0.215911   0.081051   0.046591
    25  H    0.000667   0.056584   0.004148  -0.150268   0.312520   0.076460
    26  Cl   0.001464  -0.068977  -0.073436   0.086942   0.037077  -0.081476
    27  C   -0.000591  -1.114295  -0.303004  -0.214623   0.241076  -1.386762
    28  F   -0.000001   0.030847   0.053511  -0.007154   0.034393   0.012461
    29  F   -0.000044   0.011511  -0.027516   0.061196  -0.087279   0.158041
    30  F   -0.000046   0.011654  -0.026007   0.063829  -0.089612   0.158998
    31  O    0.010895  -0.006702  -0.002560   0.003181  -0.000708  -0.000007
    32  O   -0.021117  -0.153113  -0.019492   0.099947   0.059698   0.001171
    33  C   -0.006727   0.009632  -0.006079  -0.002725  -0.004877  -0.000332
    34  C   -0.016369   0.005087  -0.007357  -0.002252  -0.001888  -0.000325
    35  C    0.002836  -0.001729  -0.000199   0.001136  -0.000151  -0.000029
    36  H   -0.000019  -0.000403  -0.000044   0.000375   0.000102  -0.000001
    37  H   -0.000017  -0.000252  -0.000020   0.000233   0.000074  -0.000001
    38  H   -0.000001  -0.000027  -0.000001   0.000033   0.000004   0.000000
    39  H   -0.000002   0.000012   0.000001  -0.000010  -0.000000  -0.000000
    40  H   -0.000002  -0.000042  -0.000002   0.000044   0.000005   0.000000
              13         14         15         16         17         18
     1  C   -0.001088   0.449696   0.422278   0.421436  -0.030154  -0.030489
     2  C   -0.002973  -0.125914  -0.068957  -0.068442   0.417166   0.419903
     3  C   -0.054410   0.029009  -0.009736  -0.008712  -0.068232  -0.074371
     4  N    0.001720   0.000316   0.000109   0.000130   0.005399   0.005252
     5  C   -0.229833  -0.002321   0.000167  -0.000513  -0.009184  -0.004985
     6  O    0.145668   0.000005  -0.000040  -0.000042  -0.000186  -0.000157
     7  N    0.091347   0.000008   0.000011   0.000007  -0.000283  -0.000108
     8  C   -2.237987  -0.000036   0.000022   0.000012  -0.000732  -0.000685
     9  C    2.030730  -0.000003  -0.000039  -0.000052  -0.000334  -0.000087
    10  C   -2.997834  -0.000000   0.000004   0.000006   0.000179   0.000094
    11  C   -2.998608   0.000000   0.000000   0.000000   0.000011   0.000005
    12  C   -2.800400  -0.000000  -0.000000  -0.000000  -0.000004  -0.000002
    13  C   15.833972  -0.000000  -0.000001  -0.000002  -0.000013  -0.000002
    14  H   -0.000000   0.498744  -0.025290  -0.025229  -0.003258  -0.003247
    15  H   -0.000001  -0.025290   0.503086  -0.029753  -0.004677   0.003891
    16  H   -0.000002  -0.025229  -0.029753   0.502904   0.003907  -0.004646
    17  H   -0.000013  -0.003258  -0.004677   0.003907   0.489745  -0.028855
    18  H   -0.000002  -0.003247   0.003891  -0.004646  -0.028855   0.488047
    19  H   -0.000027  -0.000066  -0.000338   0.002954   0.003978  -0.005371
    20  H   -0.000325  -0.000064   0.002995  -0.000354  -0.005389   0.003981
    21  H   -0.000600  -0.000001  -0.000000  -0.000000   0.000659   0.000654
    22  H    0.005935  -0.000000  -0.000000  -0.000000   0.000002   0.000002
    23  H   -0.004040   0.000000  -0.000000   0.000000  -0.000000  -0.000000
    24  H   -0.010994  -0.000000  -0.000000  -0.000000   0.000000   0.000000
    25  H    0.047085  -0.000000   0.000000   0.000000  -0.000000  -0.000000
    26  Cl  -0.189267   0.000000  -0.000000  -0.000000  -0.000000   0.000000
    27  C   -0.407263  -0.000000  -0.000000  -0.000000  -0.000000  -0.000000
    28  F   -0.057789  -0.000000  -0.000000  -0.000000  -0.000000  -0.000000
    29  F   -0.079114  -0.000000  -0.000000   0.000000   0.000000  -0.000000
    30  F   -0.077469  -0.000000   0.000000  -0.000000  -0.000000   0.000000
    31  O   -0.000313  -0.000024  -0.000006  -0.000005  -0.001169  -0.001175
    32  O   -0.001901  -0.000000   0.000000   0.000000   0.000012   0.000010
    33  C   -0.002182  -0.000050  -0.000009  -0.000002  -0.000123  -0.000269
    34  C   -0.000698   0.000021  -0.000003  -0.000001   0.000334   0.000084
    35  C   -0.000037   0.000000   0.000001   0.000000  -0.000064  -0.000030
    36  H   -0.000003  -0.000000   0.000000   0.000000   0.000000  -0.000000
    37  H   -0.000001  -0.000000   0.000000   0.000000  -0.000000   0.000000
    38  H   -0.000000   0.000000  -0.000000  -0.000000  -0.000000   0.000000
    39  H    0.000000  -0.000000   0.000000   0.000000  -0.000000  -0.000000
    40  H   -0.000000   0.000000  -0.000000  -0.000000   0.000000  -0.000000
              19         20         21         22         23         24
     1  C   -0.007152  -0.004887  -0.001380   0.000028   0.000010  -0.000002
     2  C   -0.054222  -0.055921  -0.000773  -0.001038   0.000006   0.000022
     3  C    0.449775   0.458724  -0.059659   0.007785   0.002211  -0.000461
     4  N   -0.055754  -0.055494   0.180430   0.030729   0.000641   0.000354
     5  C   -0.027003  -0.034479   0.030391  -0.035335   0.014844  -0.008963
     6  O    0.000527   0.000464   0.004553   0.003327  -0.002143   0.000041
     7  N   -0.000251  -0.000248   0.029452   0.150339  -0.013953  -0.004684
     8  C   -0.000255  -0.000364   0.008450   0.001545  -0.014000  -0.047108
     9  C   -0.001617  -0.003272  -0.003027   0.048734   0.250805   0.015505
    10  C    0.000384   0.000360   0.004652  -0.053312   0.023728   0.215911
    11  C    0.000004   0.000043   0.000634   0.003268  -0.027825   0.081051
    12  C    0.000012  -0.000071  -0.000026   0.007717   0.073343   0.046591
    13  C   -0.000027  -0.000325  -0.000600   0.005935  -0.004040  -0.010994
    14  H   -0.000066  -0.000064  -0.000001  -0.000000   0.000000  -0.000000
    15  H   -0.000338   0.002995  -0.000000  -0.000000  -0.000000  -0.000000
    16  H    0.002954  -0.000354  -0.000000  -0.000000   0.000000  -0.000000
    17  H    0.003978  -0.005389   0.000659   0.000002  -0.000000   0.000000
    18  H   -0.005371   0.003981   0.000654   0.000002  -0.000000   0.000000
    19  H    0.520114  -0.042248   0.001741   0.000004  -0.000000  -0.000000
    20  H   -0.042248   0.520762   0.001729   0.000004  -0.000001  -0.000000
    21  H    0.001741   0.001729   0.259215   0.004378   0.000000   0.000005
    22  H    0.000004   0.000004   0.004378   0.258543  -0.000077   0.004813
    23  H   -0.000000  -0.000001   0.000000  -0.000077   0.410553  -0.000091
    24  H   -0.000000  -0.000000   0.000005   0.004813  -0.000091   0.433296
    25  H   -0.000000  -0.000000  -0.000000  -0.000005   0.000010  -0.003483
    26  Cl   0.000000   0.000001   0.000000   0.000001   0.002019  -0.000073
    27  C   -0.000000  -0.000002  -0.000008   0.001036  -0.000915   0.016887
    28  F   -0.000000  -0.000000   0.000000   0.000000   0.000070   0.000012
    29  F    0.000000  -0.000000  -0.000000   0.000000   0.000007   0.000021
    30  F   -0.000000   0.000000  -0.000000   0.000000   0.000006   0.000021
    31  O   -0.000030  -0.000031   0.042255  -0.001651   0.000001  -0.000009
    32  O   -0.000004  -0.000004   0.002524   0.059632   0.000006  -0.001954
    33  C    0.000370   0.000363  -0.006615  -0.003494  -0.000017  -0.000412
    34  C    0.000067   0.000060   0.005922   0.007842  -0.000002   0.000667
    35  C   -0.000003  -0.000000  -0.000983  -0.001125  -0.000000  -0.000041
    36  H   -0.000000   0.000000  -0.000006  -0.000001   0.000000  -0.000000
    37  H    0.000000  -0.000000  -0.000007  -0.000001  -0.000000  -0.000000
    38  H    0.000000  -0.000000  -0.000002   0.000000  -0.000000   0.000000
    39  H    0.000000   0.000000   0.000000   0.000000   0.000000   0.000000
    40  H   -0.000000  -0.000000  -0.000002   0.000000  -0.000000   0.000000
              25         26         27         28         29         30
     1  C    0.000000   0.000010  -0.000017  -0.000000  -0.000000  -0.000000
     2  C    0.000000  -0.000093   0.000051   0.000000   0.000000   0.000000
     3  C    0.000045   0.001512  -0.003297   0.000001  -0.000003  -0.000003
     4  N    0.000014   0.001035   0.000502   0.000000  -0.000000  -0.000000
     5  C    0.006133   0.007982  -0.120117   0.000273  -0.000375  -0.000438
     6  O   -0.000001  -0.002326   0.002213   0.000003  -0.000000   0.000000
     7  N    0.000667   0.001464  -0.000591  -0.000001  -0.000044  -0.000046
     8  C    0.056584  -0.068977  -1.114295   0.030847   0.011511   0.011654
     9  C    0.004148  -0.073436  -0.303004   0.053511  -0.027516  -0.026007
    10  C   -0.150268   0.086942  -0.214623  -0.007154   0.061196   0.063829
    11  C    0.312520   0.037077   0.241076   0.034393  -0.087279  -0.089612
    12  C    0.076460  -0.081476  -1.386762   0.012461   0.158041   0.158998
    13  C    0.047085  -0.189267  -0.407263  -0.057789  -0.079114  -0.077469
    14  H   -0.000000   0.000000  -0.000000  -0.000000  -0.000000  -0.000000
    15  H    0.000000  -0.000000  -0.000000  -0.000000  -0.000000   0.000000
    16  H    0.000000  -0.000000  -0.000000  -0.000000   0.000000  -0.000000
    17  H   -0.000000  -0.000000  -0.000000  -0.000000   0.000000  -0.000000
    18  H   -0.000000   0.000000  -0.000000  -0.000000  -0.000000   0.000000
    19  H   -0.000000   0.000000  -0.000000  -0.000000   0.000000  -0.000000
    20  H   -0.000000   0.000001  -0.000002  -0.000000  -0.000000   0.000000
    21  H   -0.000000   0.000000  -0.000008   0.000000  -0.000000  -0.000000
    22  H   -0.000005   0.000001   0.001036   0.000000   0.000000   0.000000
    23  H    0.000010   0.002019  -0.000915   0.000070   0.000007   0.000006
    24  H   -0.003483  -0.000073   0.016887   0.000012   0.000021   0.000021
    25  H    0.449489   0.000178  -0.051587   0.000382   0.000229   0.000274
    26  Cl   0.000178  17.060730   0.000392  -0.028956   0.004603   0.004504
    27  C   -0.051587   0.000392   7.705230   0.046367   0.078362   0.074542
    28  F    0.000382  -0.028956   0.046367   9.315536  -0.037278  -0.037305
    29  F    0.000229   0.004603   0.078362  -0.037278   9.247152  -0.050100
    30  F    0.000274   0.004504   0.074542  -0.037305  -0.050100   9.246602
    31  O    0.000000  -0.000001  -0.000021  -0.000000  -0.000000  -0.000000
    32  O   -0.000002   0.000023  -0.000067  -0.000000   0.000000   0.000000
    33  C   -0.000026  -0.000035  -0.000199   0.000000   0.000001   0.000001
    34  C    0.000003  -0.000010  -0.000026   0.000000  -0.000000  -0.000000
    35  C   -0.000000   0.000000  -0.000001  -0.000000  -0.000000  -0.000000
    36  H   -0.000000  -0.000000  -0.000000  -0.000000   0.000000   0.000000
    37  H   -0.000000   0.000000  -0.000000  -0.000000   0.000000   0.000000
    38  H   -0.000000   0.000000   0.000000  -0.000000   0.000000   0.000000
    39  H   -0.000000   0.000000  -0.000000  -0.000000   0.000000  -0.000000
    40  H   -0.000000   0.000000   0.000000   0.000000   0.000000   0.000000
              31         32         33         34         35         36
     1  C    0.004745  -0.000375  -0.003863   0.001934   0.000424  -0.000000
     2  C    0.013483  -0.004853  -0.010041  -0.002809   0.003306  -0.000005
     3  C   -0.020090   0.018519   0.009209   0.020878  -0.006017   0.000028
     4  N   -0.017486   0.010557  -0.007640  -0.011922   0.002331   0.000022
     5  C    0.009808   0.003558  -0.008426  -0.023865   0.002940  -0.000125
     6  O    0.000150  -0.000421  -0.000805  -0.000504   0.000039  -0.000000
     7  N    0.010895  -0.021117  -0.006727  -0.016369   0.002836  -0.000019
     8  C   -0.006702  -0.153113   0.009632   0.005087  -0.001729  -0.000403
     9  C   -0.002560  -0.019492  -0.006079  -0.007357  -0.000199  -0.000044
    10  C    0.003181   0.099947  -0.002725  -0.002252   0.001136   0.000375
    11  C   -0.000708   0.059698  -0.004877  -0.001888  -0.000151   0.000102
    12  C   -0.000007   0.001171  -0.000332  -0.000325  -0.000029  -0.000001
    13  C   -0.000313  -0.001901  -0.002182  -0.000698  -0.000037  -0.000003
    14  H   -0.000024  -0.000000  -0.000050   0.000021   0.000000  -0.000000
    15  H   -0.000006   0.000000  -0.000009  -0.000003   0.000001   0.000000
    16  H   -0.000005   0.000000  -0.000002  -0.000001   0.000000   0.000000
    17  H   -0.001169   0.000012  -0.000123   0.000334  -0.000064   0.000000
    18  H   -0.001175   0.000010  -0.000269   0.000084  -0.000030  -0.000000
    19  H   -0.000030  -0.000004   0.000370   0.000067  -0.000003  -0.000000
    20  H   -0.000031  -0.000004   0.000363   0.000060  -0.000000   0.000000
    21  H    0.042255   0.002524  -0.006615   0.005922  -0.000983  -0.000006
    22  H   -0.001651   0.059632  -0.003494   0.007842  -0.001125  -0.000001
    23  H    0.000001   0.000006  -0.000017  -0.000002  -0.000000   0.000000
    24  H   -0.000009  -0.001954  -0.000412   0.000667  -0.000041  -0.000000
    25  H    0.000000  -0.000002  -0.000026   0.000003  -0.000000  -0.000000
    26  Cl  -0.000001   0.000023  -0.000035  -0.000010   0.000000  -0.000000
    27  C   -0.000021  -0.000067  -0.000199  -0.000026  -0.000001  -0.000000
    28  F   -0.000000  -0.000000   0.000000   0.000000  -0.000000  -0.000000
    29  F   -0.000000   0.000000   0.000001  -0.000000  -0.000000   0.000000
    30  F   -0.000000   0.000000   0.000001  -0.000000  -0.000000   0.000000
    31  O    8.549974  -0.193075   0.348779  -0.169062   0.050497   0.000964
    32  O   -0.193075   8.645555   0.463929  -0.249056   0.028331  -0.001508
    33  C    0.348779   0.463929   5.444701  -0.674930  -0.021984  -0.061719
    34  C   -0.169062  -0.249056  -0.674930   7.132609  -0.227683   0.426331
    35  C    0.050497   0.028331  -0.021984  -0.227683   5.758101  -0.049479
    36  H    0.000964  -0.001508  -0.061719   0.426331  -0.049479   0.491783
    37  H    0.000993  -0.001678  -0.059483   0.424245  -0.049527  -0.023803
    38  H   -0.004727  -0.000035  -0.005238  -0.051103   0.409644  -0.003979
    39  H    0.002046  -0.000180   0.031717  -0.083598   0.390748  -0.002413
    40  H   -0.004796  -0.000003  -0.004955  -0.051380   0.409673   0.003650
              37         38         39         40
     1  C    0.000001  -0.000004  -0.000003  -0.000011
     2  C    0.000002  -0.000038  -0.000008  -0.000049
     3  C    0.000017  -0.000086   0.000005  -0.000074
     4  N    0.000014  -0.000014   0.000006  -0.000009
     5  C   -0.000122  -0.000009   0.000011  -0.000016
     6  O   -0.000000  -0.000000   0.000000  -0.000000
     7  N   -0.000017  -0.000001  -0.000002  -0.000002
     8  C   -0.000252  -0.000027   0.000012  -0.000042
     9  C   -0.000020  -0.000001   0.000001  -0.000002
    10  C    0.000233   0.000033  -0.000010   0.000044
    11  C    0.000074   0.000004  -0.000000   0.000005
    12  C   -0.000001   0.000000  -0.000000   0.000000
    13  C   -0.000001  -0.000000   0.000000  -0.000000
    14  H   -0.000000   0.000000  -0.000000   0.000000
    15  H    0.000000  -0.000000   0.000000  -0.000000
    16  H    0.000000  -0.000000   0.000000  -0.000000
    17  H   -0.000000  -0.000000  -0.000000   0.000000
    18  H    0.000000   0.000000  -0.000000  -0.000000
    19  H    0.000000   0.000000   0.000000  -0.000000
    20  H   -0.000000  -0.000000   0.000000  -0.000000
    21  H   -0.000007  -0.000002   0.000000  -0.000002
    22  H   -0.000001   0.000000   0.000000   0.000000
    23  H   -0.000000  -0.000000   0.000000  -0.000000
    24  H   -0.000000   0.000000   0.000000   0.000000
    25  H   -0.000000  -0.000000  -0.000000  -0.000000
    26  Cl   0.000000   0.000000   0.000000   0.000000
    27  C   -0.000000   0.000000  -0.000000   0.000000
    28  F   -0.000000  -0.000000  -0.000000   0.000000
    29  F    0.000000   0.000000   0.000000   0.000000
    30  F    0.000000   0.000000  -0.000000   0.000000
    31  O    0.000993  -0.004727   0.002046  -0.004796
    32  O   -0.001678  -0.000035  -0.000180  -0.000003
    33  C   -0.059483  -0.005238   0.031717  -0.004955
    34  C    0.424245  -0.051103  -0.083598  -0.051380
    35  C   -0.049527   0.409644   0.390748   0.409673
    36  H   -0.023803  -0.003979  -0.002413   0.003650
    37  H    0.491980   0.003648  -0.002406  -0.003972
    38  H    0.003648   0.491905  -0.028731  -0.023991
    39  H   -0.002406  -0.028731   0.537705  -0.028758
    40  H   -0.003972  -0.023991  -0.028758   0.492034
 Mulliken charges:
               1
     1  C   -0.800331
     2  C   -0.305425
     3  C   -0.173489
     4  N   -0.722783
     5  C    0.664986
     6  O   -0.631959
     7  N   -0.647730
     8  C   -0.112231
     9  C   -0.153622
    10  C   -0.016090
    11  C    0.046022
    12  C   -1.364503
    13  C   -0.001286
    14  H    0.207707
    15  H    0.206286
    16  H    0.206397
    17  H    0.231264
    18  H    0.232557
    19  H    0.214411
    20  H    0.213669
    21  H    0.495446
    22  H    0.500374
    23  H    0.284804
    24  H    0.263079
    25  H    0.251149
    26  Cl   0.236175
    27  C    1.436138
    28  F   -0.325374
    29  F   -0.279414
    30  F   -0.279452
    31  O   -0.614126
    32  O   -0.744635
    33  C    0.584556
    34  C   -0.451243
    35  C   -0.700926
    36  H    0.220253
    37  H    0.220083
    38  H    0.212752
    39  H    0.183857
    40  H    0.212655
 Sum of Mulliken charges =  -1.00000
 Mulliken charges with hydrogens summed into heavy atoms:
               1
     1  C   -0.179942
     2  C    0.158396
     3  C    0.254591
     4  N   -0.227338
     5  C    0.664986
     6  O   -0.631959
     7  N   -0.147356
     8  C   -0.112231
     9  C    0.131182
    10  C    0.246988
    11  C    0.297171
    12  C   -1.364503
    13  C   -0.001286
    26  Cl   0.236175
    27  C    1.436138
    28  F   -0.325374
    29  F   -0.279414
    30  F   -0.279452
    31  O   -0.614126
    32  O   -0.744635
    33  C    0.584556
    34  C   -0.010908
    35  C   -0.091661
 Electronic spatial extent (au):  <R**2>=          14024.3075
 Charge=             -1.0000 electrons
[...]
 0002740,-0.00000356,0.00000708,0.00004706,0.00000284,0.00000180,-0.000
 03333,-0.00000317,0.00000102,-0.00000096,-0.00000273,-0.00000097,-0.00
 000346,0.00000305,-0.00000416,-0.00000539,0.00000759,0.00000523,0.0000
 0926,0.00000051,0.00001893,0.00000658,-0.00000434,-0.00001401,-0.00000
 489,0.00001355,0.00000673,-0.00000463,0.00000783,-0.00000511,-0.000000
 22,-0.00031612,0.00000008,-0.00001591,-0.00012780,0.00002469,-0.000009
 68,-0.00000587,-0.00000251,-0.00002928,0.00002217,-0.00002356,0.000011
 70,0.00000558,-0.00000525,0.00000416,-0.00000069,0.00000073,-0.0000544
 0,0.00001700,-0.00001827,0.00001014,-0.00000180,0.00000483,0.00002106,
 -0.00001974,0.00000523,0.00001295,0.00000251,0.00000719,0.00063604,0.0
 0096599,-0.00012211,0.00145159,0.00055349,0.00116596,-0.00248936,-0.00
 265461,-0.00198795,-0.11488008,0.04543253,-0.22942795,0.00204678,-0.00
 083922,0.00262790,0.12652354,-0.04850520,0.24746392,0.00000382,0.00000
 046,-0.00000470,-0.00000140,-0.00000536,0.00002330,0.00000382,0.000002
 31,0.00000912,0.00006819,0.00020649,-0.00003044,-0.00020253,-0.0000007
 5,0.00001419,0.00005301,0.00002117,-0.00001222,0.00004853,-0.00007581,
 0.00002609,0.00002988,0.00000339,0.00000714,-0.00000507,0.00000005,-0.
 00000569,-0.00001073,0.00001164,-0.00000658,0.00001096,-0.00000232,0.0
 0000134,-0.00000659,-0.00000593,-0.00000345,0.00000187,0.00000407,0.00
 000079,0.00000620,-0.00000125,0.00000407,-0.00000411,0.00000856,-0.000
 00603,-0.00000145,0.00000066,0.00000110,-0.00000199,-0.00000649,0.0000
 1352,0.00000042,-0.00000964,-0.00002348,-0.00000167,0.00000375,-0.0000
 0044,0.00000047,0.00001199,-0.00000523,-0.00002992,-0.00028429,-0.0000
 0128,-0.00002303,0.00017525,-0.00007402,-0.00000239,-0.00000032,0.0000
 0282,0.00003327,-0.00000189,0.00000243,-0.00000212,-0.00000224,0.00000
 166,-0.00000166,-0.00000466,0.00000004,0.00001438,-0.00000085,0.000011
 52,-0.00000260,0.00000027,-0.00000320,-0.00000508,0.00000332,-0.000002
 34,-0.00000470,-0.00000300,-0.00000504,0.00043181,0.00204102,-0.001014
 82,-0.00001911,-0.00190401,-0.00056890,-0.00450007,0.00161876,0.003261
 27,-0.12481667,0.04696960,0.11307630,-0.01602560,0.00955731,0.02279348
 ,0.00953885,-0.00638634,-0.01332375,0.13830674,-0.00001235,-0.00000740
 ,-0.00000447,0.00002529,0.00000771,0.00001176,-0.00012363,0.00003341,-
 0.00001815,-0.00015414,-0.00063499,-0.00001722,0.00041535,0.00015707,-
 0.00004278,-0.00010002,-0.00020017,0.00004075,-0.00019747,-0.00000266,
 -0.00007726,0.00018622,0.00006738,0.00000104,-0.00004422,-0.00004305,0
 .00001082,-0.00006891,0.00002025,0.00000380,0.00002217,0.00000554,0.00
 000640,-0.00004788,-0.00001062,0.00000324,0.00003226,0.00001381,0.0000
 0047,0.00001229,0.00000266,-0.00000026,0.00000771,-0.00000819,0.000005
 11,0.00000772,-0.00000789,-0.00000231,-0.00002150,0.00000234,-0.000031
 75,-0.00002344,0.00000919,0.00002338,0.00002184,-0.00002511,-0.0000063
 6,0.00001997,-0.00002327,0.00001276,0.00002274,0.00099978,0.00012325,0
 .00004881,0.00012361,0.00015626,0.00001146,0.00000551,-0.00000316,0.00
 004551,-0.00000145,-0.00002131,-0.00000733,-0.00000196,-0.00000614,-0.
 00000492,-0.00000854,0.00000057,0.00005155,0.00000338,-0.00001708,-0.0
 0001475,-0.00000758,0.00001255,-0.00001492,0.00000919,0.00000252,-0.00
 001180,-0.00000415,0.00000051,0.00164362,-0.00593563,0.00447134,-0.001
 71270,0.00055314,0.00396784,0.01838065,-0.00828549,-0.03024672,0.04720
 926,-0.07553064,-0.07182614,-0.00998042,0.00524141,0.01402185,-0.00432
 895,0.00232729,0.00587905,-0.04943747,0.08148821,-0.00000639,-0.000003
 01,0.00000309,0.00000273,0.00001226,-0.00001268,-0.00001503,0.00000727
 ,-0.00000656,-0.00006149,-0.00011943,0.00004387,0.00015292,0.00005670,
 -0.00000830,-0.00003390,-0.00006807,0.00000866,-0.00013476,-0.00008754
 ,0.00001829,0.00016110,0.00004444,-0.00000208,-0.00004022,-0.00002669,
 0.00000017,-0.00005735,0.00001266,0.00000363,0.00002428,0.00000382,0.0
 0000628,-0.00004017,-0.00000108,0.00000021,0.00002858,0.00000127,0.000
 00146,-0.00000079,0.00000210,-0.00000121,0.00000392,-0.00000513,0.0000
 0562,0.00000233,-0.00000243,-0.00000315,-0.00000278,0.00000146,-0.0000
 0939,-0.00000621,0.00000074,0.00001420,0.00000123,-0.00000447,-0.00000
 268,0.00000149,-0.00000831,0.00000685,-0.00000361,0.00014543,-0.000071
 79,0.00000710,0.00011649,-0.00002343,0.00000798,0.00000459,-0.00000256
 ,0.00002390,-0.00002581,-0.00001542,-0.00001060,-0.00000623,-0.0000036
 1,-0.00000348,0.00000209,0.00000039,0.00004766,-0.00002047,-0.00001065
 ,-0.00001101,-0.00000010,0.00000503,-0.00001917,0.00001918,0.00000087,
 -0.00000863,0.00000315,0.00000398,-0.00089842,0.00004055,-0.00073898,-
 0.00123026,-0.00050509,0.00054581,-0.00053706,0.00375119,0.00268246,0.
 11191151,-0.06877971,-0.20317476,-0.00103477,0.00071225,0.00086419,0.0
 1518409,-0.01001764,-0.02202279,-0.12348715,0.07369252,0.21970871,0.00
 000169,0.00000458,-0.00000213,-0.00000468,-0.00000773,0.00000893,0.000
 00535,0.00000392,0.00001030,0.00001948,0.00001052,-0.00002921,-0.00007
 771,0.00000963,0.00001412,0.00001850,-0.00001538,-0.00000750,0.0000228
 7,-0.00009274,-0.00001010,-0.00000124,-0.00000720,0.00000838,-0.000000
 24,-0.00000533,-0.00000299,0.00000083,0.00001168,-0.00001695,0.0000039
 6,0.00000032,-0.00000110,-0.00000186,-0.00001019,-0.00000215,-0.000002
 65,0.00001003,0.00000074,-0.00000573,0.00000177,0.00000039,-0.00000160
 ,-0.00000057,0.00000002,0.00000127,-0.00000494,-0.00000192,0.00000400,
 0.00000153,-0.00001350,0.00001146,0.00000596,0.00000817,0.00000041,-0.
 00000712,-0.00000098,-0.00000093,-0.00000026,-0.00000211,0.00000416,-0
 .00001256,0.00002371,-0.00000043,0.00013624,-0.00000131,-0.00000151,-0
 .00000078,0.00000311,0.00000797,0.00001408,0.00001341,0.00000341,0.000
 00319,0.00000412,-0.00000208,-0.00001117,0.00000004,0.00001179,0.00001
 608,0.00001521,-0.00000335,-0.00000356,-0.00000158,-0.00000107,-0.0000
 0540,-0.00000297,-0.00000619,-0.00000849,-0.00000994,0.00122394,-0.000
 26056,-0.00053087,0.00058306,-0.00049146,-0.00028420,-0.00121921,0.001
 98238,0.00014514,-0.01690613,0.00951213,0.02445604,-0.12711477,0.04750
 052,0.11458828,0.00091449,0.00081390,-0.00034961,-0.00495282,-0.003557
 43,-0.00044003,0.14026529,0.00001265,0.00000829,-0.00000816,-0.0000045
 9,-0.00001395,0.00002920,0.00002841,-0.00001224,-0.00000033,0.00004143
 ,0.00017278,-0.00001707,-0.00012773,-0.00007861,0.00000377,0.00002818,
 0.00008430,-0.00000829,0.00008574,0.00005630,-0.00000166,-0.00009544,-
 0.00002770,0.00000098,0.00002356,0.00002375,-0.00000108,0.00003055,-0.
 00001518,-0.00000259,-0.00001582,-0.00000491,0.00000235,0.00002632,0.0
 0000987,-0.00000115,-0.00001721,-0.00001332,0.00000246,-0.00000361,-0.
 00000409,0.00000092,-0.00000751,0.00000695,-0.00000503,-0.00000387,0.0
 0000460,0.00000337,0.00000567,-0.00000143,0.00001446,0.00001208,-0.000
 00823,-0.00002813,-0.00000471,0.00000880,0.00000472,-0.00000136,0.0000
 1252,-0.00000717,0.00001874,-0.00027315,0.00002017,-0.00001633,-0.0001
 1344,0.00000526,-0.00000490,-0.00000269,0.00000028,-0.00001748,-0.0000
 0215,0.00000102,0.00000194,-0.00000015,-0.00000004,0.00000397,0.000010
 40,-0.00000108,-0.00003986,-0.00000866,-0.00000190,0.00001083,0.000005
 58,-0.00000505,0.00001107,-0.00000394,0.00000078,0.00001109,0.00000707
 ,0.00000577,0.00033872,-0.00086739,-0.00004026,0.00060897,0.00022014,-
 0.00020260,-0.00103706,0.00033552,0.00085515,-0.00867608,0.00542215,0.
 01342379,0.04875624,-0.07580806,-0.06944132,0.00082266,0.00054397,-0.0
 0019429,-0.00315257,-0.00134658,0.00032167,-0.05043727,0.07961288,-0.0
 0000521,0.00000097,0.00000858,-0.00000969,0.00001045,-0.00003746,0.000
 04028,-0.00000533,-0.00000145,-0.00007564,-0.00009267,0.00002781,0.000
 17177,0.00003008,-0.00000924,-0.00004658,-0.00002789,0.00000869,-0.000
 09496,0.00005591,0.00000669,0.00005188,0.00002045,-0.00000630,-0.00001
 260,-0.00001090,0.00000273,-0.00001703,-0.00000025,0.00000603,0.000002
 64,0.00000162,0.00000082,-0.00001373,0.00000332,0.00000107,0.00001120,
 -0.00000365,-0.00000024,-0.00001880,0.00000406,-0.00000584,0.00000612,
 -0.00001421,0.00001065,0.00000260,-0.00000489,-0.00000447,0.00001017,0
 .00001043,-0.00002967,0.00000742,0.00002315,0.00004617,-0.00000692,-0.
 00000441,-0.00000093,-0.00001088,-0.00001400,0.00000622,-0.00000211,0.
 00011766,-0.00003389,0.00002110,-0.00005573,-0.00000664,0.00000512,0.0
 0000175,-0.00000200,0.00000295,-0.00000241,-0.00000473,-0.00000311,-0.
 00000146,-0.00000154,-0.00000040,0.00000474,0.00000006,0.00001292,-0.0
 0001014,-0.00000743,-0.00000281,0.00000071,0.00000263,-0.00000575,0.00
 000726,0.00000094,-0.00000123,0.00000310,0.00000340,-0.00161202,0.0000
 5270,0.00052100,-0.00065451,0.00047834,-0.00010633,0.00206377,-0.00149
 808,0.00008802,-0.00068441,0.00078317,0.00041547,0.11513609,-0.0676665
 9,-0.21439182,0.00021497,0.00046044,0.00070230,-0.00016646,-0.00001969
 ,0.00150166,-0.12609198,0.07573637,0.22889129,0.00000620,0.00000614,-0
 .00000052,0.00001183,-0.00001999,0.00000223,-0.00005911,0.00002519,-0.
 00000300,0.00006630,-0.00000736,0.00000130,-0.00021299,0.00004818,-0.0
 0000708,0.00006277,-0.00008529,0.00000792,0.00001192,-0.00042637,0.000
 03470,0.00015376,0.00001386,0.00000112,-0.00003794,-0.00003070,0.00000
 194,-0.00005088,0.00005052,-0.00000482,0.00002789,-0.00000105,0.000000
 53,-0.00003730,-0.00002343,0.00000136,0.00001667,0.00001946,-0.0000013
 4,0.00001104,-0.00000259,0.00000042,-0.00000208,0.00000272,-0.00000356
 ,-0.00000213,0.00000317,0.00000300,-0.00000719,-0.00000629,0.00001491,
 -0.00000668,-0.00000876,-0.00001412,0.00001186,-0.00000183,0.,0.000011
 90,-0.00000169,0.00000065,-0.00001911,0.00004728,-0.00000382,-0.000040
 67,0.00063465,-0.00005198,0.00000102,0.00000096,-0.00000007,0.00005203
 ,0.00000747,0.00000011,-0.00000250,0.00000008,-0.00000007,-0.00000767,
 -0.00002240,0.00000171,0.00006093,0.00001096,-0.00000009,-0.00001719,-
 0.00000885,0.00000934,-0.00001733,0.00000573,-0.00000070,-0.00001691,-
 0.00001025,-0.00000822,0.00210113,0.00027156,0.00000042,-0.00088817,-0
 .00369790,0.00028711,-0.00690108,0.00264672,-0.00033029,0.00500111,-0.
 03281831,0.00273977,-0.05249680,0.03456354,-0.00281684,0.00116147,0.00
 078081,-0.00039633,0.00115671,0.00082718,0.00030250,-0.00260994,0.0169
 4893,-0.00349056,0.05611552,-0.00001535,-0.00000506,0.00000089,0.00001
 312,0.00001208,-0.00000325,-0.00010187,0.00004690,-0.00000509,-0.00002
 075,-0.00034818,0.00002957,0.00006615,0.00024825,-0.00001958,-0.000002
 00,-0.00027187,0.00002219,-0.00018571,-0.00047769,0.00003607,0.0003412
 5,0.00007185,-0.00000061,-0.00008652,-0.00008459,0.00000558,-0.0001114
 9,0.00007937,-0.00000826,0.00006726,0.00001584,-0.00000039,-0.00009626
 ,-0.00005308,0.00000276,0.00005557,0.00005995,-0.00000399,0.00000901,0
 .00000779,-0.00000069,0.00000887,-0.00001153,0.00000952,0.00000882,-0.
 00001245,-0.00000720,-0.00001689,0.00000490,-0.00003403,-0.00001832,0.
 00001095,0.00003341,0.00001674,-0.00002545,-0.00001046,0.00001602,-0.0
 0002386,0.00001499,-0.00006652,0.00057008,-0.00004872,0.00003339,0.000
 82167,-0.00006611,0.00001094,0.00000656,-0.00000034,0.00008425,0.00002
 529,-0.00000051,-0.00000221,0.00000348,-0.00000018,-0.00001812,-0.0000
 5496,0.00000417,0.00016850,0.00004384,-0.00000055,-0.00004844,-0.00002
 682,0.00002618,-0.00004630,0.00001119,-0.00000171,-0.00004780,-0.00003
 096,-0.00002329,-0.00069595,-0.00114199,0.00013290,-0.00182687,-0.0028
 5328,0.00020767,-0.00123318,0.00278602,-0.00019694,0.00430141,-0.01377
 955,0.00109035,0.03386294,-0.30708913,0.02119773,-0.00007819,0.0003699
 0,-0.00055035,-0.00012561,0.00050602,0.00047858,0.00114915,-0.00945786
 ,0.00110623,-0.03618465,0.33517338,0.00000121,0.00000122,0.00000865,-0
 .00000040,-0.00000377,-0.00003027,0.00000721,-0.00000316,0.00000331,0.
 00000249,0.00002929,0.00001531,-0.00000861,-0.00001952,-0.00000185,0.0
 0000114,0.00002055,-0.00000181,0.00001516,0.00003201,-0.00000081,-0.00
 002516,-0.00000544,0.00000176,0.00000639,0.00000635,-0.00000030,0.0000
 0823,-0.00000578,-0.00000149,-0.00000497,-0.00000140,-0.00000128,0.000
 00721,0.00000380,-0.00000161,-0.00000423,-0.00000448,0.00000077,-0.000
 00051,-0.00000087,-0.00000238,0.00000108,-0.00000162,0.00000004,-0.000
 00260,0.00000376,0.00000101,0.00000314,-0.00000377,0.00001103,-0.00000
 075,0.00000349,0.00000440,0.00000073,0.00000493,0.00000100,-0.00000299
 ,-0.00000096,-0.00000064,0.00000522,-0.00004634,-0.00001220,-0.0000033
 1,-0.00005634,0.00000407,-0.00000087,-0.00000048,0.00000041,-0.0000060
 3,-0.00000162,0.00000360,0.00000012,-0.00000013,0.00000177,0.00000134,
 0.00000405,-0.00000060,-0.00001273,-0.00000283,0.00000648,0.00000430,0
 .00000265,-0.00000441,0.00000348,-0.00000093,-0.00000124,0.00000299,0.
 00000131,-0.00000058,0.00007674,0.00014473,0.00061385,0.00013229,0.000
 17534,0.00001602,-0.00001399,-0.00013487,0.00063967,-0.00025052,0.0005
 1946,-0.00112336,-0.00276080,0.02120902,-0.05247526,0.00021861,-0.0003
 3973,0.00007987,-0.00016636,0.00029575,-0.00004988,0.00196921,-0.02610
 632,0.00352736,0.00305076,-0.02374918,0.04957658,0.00000152,0.00000487
 ,0.00000117,-0.00000477,-0.00000862,-0.00000673,0.00000694,0.00000203,
 -0.00001052,0.00001637,0.00001230,0.00002731,-0.00007200,0.00000791,-0
 .00001755,0.00001681,-0.00001471,0.00001028,0.00001955,-0.00008792,0.0
 0002506,0.00000041,-0.00000784,-0.00000704,-0.00000068,-0.00000508,0.0
 0000377,-0.00000010,0.00001420,0.00001469,0.00000398,0.00000053,0.0000
 0111,-0.00000232,-0.00000959,0.00000366,-0.00000229,0.00000964,-0.0000
 0240,-0.00000630,0.00000181,-0.00000071,0.00000126,-0.00000469,0.00000
 288,-0.00000142,-0.00000103,-0.00000022,0.00001205,0.00000504,-0.00001
 009,0.00000387,0.00000415,0.00001404,-0.00000133,-0.00000035,0.0000019
 7,0.00000014,-0.00000700,0.00000216,0.00000470,-0.00001262,-0.00002085
 ,0.00000045,0.00013264,-0.00002026,-0.00000127,-0.00000121,-0.00000294
 ,0.00000846,0.00001170,-0.00001513,0.00000344,0.00000245,-0.00000444,-
 0.00000211,-0.00001087,0.00000168,0.00001258,0.00001315,-0.00001699,-0
 .00000652,-0.00000670,0.00001087,-0.00000132,-0.00000464,0.00000370,-0
 .00000346,-0.00000324,0.00000196,0.00114532,-0.00020054,0.00059730,0.0
 0055154,-0.00042132,0.00037680,-0.00114294,0.00188687,-0.00048919,-0.0
 1615263,0.00544918,-0.02621152,-0.11990161,0.02705439,-0.11735719,-0.0
 0498327,-0.00346187,0.00080463,0.00091238,0.00087266,0.00021994,0.0098
 1022,-0.00416433,0.01526643,-0.00260840,0.00081558,-0.00225422,0.13236
 276,0.00001305,0.00000949,0.00000842,-0.00000198,-0.00002088,-0.000032
 01,0.00002154,-0.00001100,0.00000248,0.00005281,0.00018639,-0.00000736
 ,-0.00015366,-0.00008244,0.00000363,0.00003521,0.00008803,-0.00000371,
 0.00009983,0.00004648,-0.00000176,-0.00010242,-0.00003076,-0.00000009,
 0.00002526,0.00002513,-0.00000179,0.00003271,-0.00001403,0.00000692,-0
 .00001595,-0.00000543,-0.00000183,0.00002812,0.00000933,0.00000067,-0.
 00001872,-0.00001279,-0.00000099,-0.00000053,-0.00000491,-0.00000109,-
 0.00000409,0.00000457,-0.00000496,-0.00000857,0.00001006,0.00000485,0.
 00000961,-0.00000594,0.00003692,0.00000457,-0.00000607,-0.00001809,0.0
 0000017,0.00001571,0.00000564,-0.00000337,0.00000845,-0.00000633,0.000
 01887,-0.00028854,0.00002230,-0.00001959,-0.00010234,0.00000969,-0.000
 00565,-0.00000301,-0.00000030,-0.00001761,-0.00000199,-0.00000204,0.00
 000243,0.00000007,-0.00000017,0.00000396,0.00000952,-0.00000035,-0.000
 04134,-0.00000676,0.00000050,0.00001127,0.00000556,-0.00000575,0.00001
 183,-0.00000507,0.00000057,0.00001096,0.00000620,0.00000479,0.00056957
 ,-0.00081006,0.00027291,0.00069964,0.00016876,0.00017909,-0.00132983,0
 .00043346,-0.00095131,-0.00807425,0.00303436,-0.01416975,0.02814582,-0
 .05753819,0.04457609,-0.00309859,-0.00133677,0.00004302,0.00077073,0.0
 0050849,0.00025077,-0.00624750,0.00151784,-0.00948063,0.01644257,-0.00
 512699,0.02803184,-0.02786691,0.05932608,0.00000297,-0.00000093,0.0000
 0758,0.00001112,-0.00001345,-0.00003057,-0.00004407,0.00000680,-0.0000
 0433,0.00006803,0.00006742,0.00001690,-0.00015115,-0.00001837,-0.00001
 053,0.00004181,0.00001465,0.00000643,0.00008029,-0.00006495,0.00001976
 ,-0.00003578,-0.00001688,-0.00000475,0.00000859,0.00000714,0.00000176,
 0.00001176,0.00000401,0.00000589,0.,-0.00000060,0.00000131,0.00000924,
 -0.00000493,0.00000204,-0.00000837,0.00000596,-0.00000111,0.00001911,-
 0.00000412,-0.00000444,-0.00000179,0.00000327,-0.00000445,-0.00000515,
 0.00001428,0.00000735,-0.00001020,-0.00001457,0.00004345,-0.00001002,-
 0.00001418,-0.00002493,0.00001082,0.00001249,0.00000344,0.00000760,0.0
 0000268,-0.00000034,-0.00000016,-0.00007659,-0.00001881,-0.00001784,0.
 00007550,-0.00001860,-0.00000426,-0.00000164,-0.00000192,0.00000030,0.
 00000233,-0.00000535,0.00000292,0.00000128,-0.00000179,-0.00000032,-0.
 00000662,0.00000096,-0.00000574,0.00001041,-0.00001010,-0.00000089,-0.
 00000365,0.00000522,0.00000382,-0.00000642,0.00000232,0.00000088,-0.00
 000138,0.00000211,0.00156995,0.00015474,0.00057251,0.00056824,-0.00053
 508,-0.00002783,-0.00190950,0.00149601,-0.00007468,0.00148493,-0.00103
 809,0.00204914,-0.11808965,0.04277011,-0.23983681,0.00046915,0.0003732
 6,0.00152195,-0.00033861,-0.00040274,0.00073449,-0.01346624,0.00564104
 ,-0.02112960,0.00067162,0.00033263,-0.00080698,0.12905656,-0.04877082,
 0.25701328\\-0.00000092,0.00000209,0.00000053,0.00000239,0.00000015,-0
 .00000175,0.00000474,0.00000257,-0.00000650,-0.00000900,-0.00000490,0.
 00000772,-0.00000187,0.00002381,0.00000910,-0.00000383,-0.00001275,-0.
 00000702,-0.00000051,-0.00000726,0.00000009,-0.00000032,-0.00000105,-0
 .00000612,0.00000669,0.00000318,0.00000407,0.00000212,0.00000142,-0.00
 000125,0.00000200,-0.00000240,0.00000175,0.00000163,-0.00000127,0.0000
 0052,-0.00000038,0.00000048,0.00000118,0.00000092,0.00000215,-0.000000
 33,0.00000113,0.00000162,-0.00000016,0.00000014,0.00000203,0.00000012,
 0.00000036,0.00000167,-0.00000079,-0.00000061,0.00000282,0.00000020,-0
 .00000003,0.00000077,0.00000138,0.00000047,0.00000266,0.00000099,0.000
 00097,-0.00000345,-0.00000245,-0.00000033,-0.00000931,-0.00000148,0.00
 000402,-0.00000187,-0.00000082,0.00000038,0.00000011,0.00000181,0.0000
 0092,-0.00000137,-0.00000071,0.00000408,-0.00000268,-0.00000050,-0.000
 00075,-0.00000200,0.00000799,-0.00000004,0.00000105,-0.00000464,0.0000
 0100,-0.00000514,0.00000015,-0.00000214,-0.00000367,-0.00000296,0.0000
 0441,0.00001000,0.00000411,0.00000014,0.00001043,-0.00000165,-0.000007
 42,-0.00001472,-0.00000011,0.00000379,0.00000306,-0.00001224,-0.000004
 59,-0.00000060,0.00000340,-0.00000292,0.00000159,0.00000407,-0.0000019
 1,-0.00000036,0.00000458,-0.00000003,-0.00000023,-0.00000083,-0.000002
 52,0.00000009,-0.00000108,-0.00000217,0.00000129,-0.00000039\\\@


 "ANNA, YOU MUSN'T SPEAK OF OXIDIZED MURIATIC ACID
 ANYMORE, FROM NOW ON YOU MUST SAY CHLORINE."
   -- JENS JACOB BERZELIUS, IN 1820, TO HIS COOK, WHO HAD
 COMPLAINED OF THE SMELL OF THE FLASK SHE WAS CLEANING.
 Job cpu time:       0 days  6 hours 34 minutes 12.7 seconds.
 File lengths (MBytes):  RWF=   1153 Int=      0 D2E=      0 Chk=     29 Scr=      1
 Normal termination of Gaussian 09 at Tue Feb 19 13:28:49 2019.
WARNING: pbs_rusage is deprecated and values produced may not be accurate


=============================================================================
                                     Resource usage:
                                       CPU time:              31:58:36
   JobId:    5874621.r-man2            Elapsed time:          04:01:12
   Project:             q95            Requested time:        46:00:00
   Service Units:     32.16 
                                       Max physical memory:     1569MB
                                       Max virtual memory:      3097MB
                                       Requested memory:           0MB

                                       Number of cpus:               8

                                       Max jobfs disk use:       1.1GB
                                       Requested jobfs:         20.0GB
=============================================================================

