 Entering Gaussian System, Link 0=/apps/gaussian/g09e01/g09/g09
 AtFile(1): /home/507/hio507/Basis/6-31pGd.gbs
 Initial command:
 /apps/gaussian/g09e01/g09/l1.exe "/jobfs/local/5874634.r-man2/Gau-20601.inp" -scrdir="/jobfs/local/5874634.r-man2/"
 Entering Link 1 = /apps/gaussian/g09e01/g09/l1.exe PID=     20602.
  
 Copyright (c) 1988,1990,1992,1993,1995,1998,2003,2009,2015,
            Gaussian, Inc.  All Rights Reserved.
  
 This is part of the Gaussian(R) 09 program.  It is based on
 the Gaussian(R) 03 system (copyright 2003, Gaussian, Inc.),
 the Gaussian(R) 98 system (copyright 1998, Gaussian, Inc.),
 the Gaussian(R) 94 system (copyright 1995, Gaussian, Inc.),
 the Gaussian 92(TM) system (copyright 1992, Gaussian, Inc.),
 the Gaussian 90(TM) system (copyright 1990, Gaussian, Inc.),
 the Gaussian 88(TM) system (copyright 1988, Gaussian, Inc.),
 the Gaussian 86(TM) system (copyright 1986, Carnegie Mellon
 University), and the Gaussian 82(TM) system (copyright 1983,
 Carnegie Mellon University). Gaussian is a federally registered
 trademark of Gaussian, Inc.
  
 This software contains proprietary and confidential information,
 including trade secrets, belonging to Gaussian, Inc.
  
 This software is provided under written license and may be
 used, copied, transmitted, or stored only in accord with that
 written license.
  
 The following legend is applicable only to US Government
 contracts under FAR:
  
                    RESTRICTED RIGHTS LEGEND
  
 Use, reproduction and disclosure by the US Government is
 subject to restrictions as set forth in subparagraphs (a)
 and (c) of the Commercial Computer Software - Restricted
 Rights clause in FAR 52.227-19.
  
 Gaussian, Inc.
 340 Quinnipiac St., Bldg. 40, Wallingford CT 06492
  
  
 ---------------------------------------------------------------
 Warning -- This program may not be used in any manner that
 competes with the business of Gaussian, Inc. or will provide
 assistance to any competitor of Gaussian, Inc.  The licensee
 of this program is prohibited from giving any competitor of
 Gaussian, Inc. access to this program.  By using this program,
 the user acknowledges that Gaussian, Inc. is engaged in the
 business of creating and licensing software in the field of
 computational chemistry and represents and warrants to the
 licensee that it is not a competitor of Gaussian, Inc. and that
 it will not use this program in any manner prohibited above.
 ---------------------------------------------------------------
  

 Cite this work as:
 Gaussian 09, Revision E.01,
 M. J. Frisch, G. W. Trucks, H. B. Schlegel, G. E. Scuseria, 
 M. A. Robb, J. R. Cheeseman, G. Scalmani, V. Barone, B. Mennucci, 
 G. A. Petersson, H. Nakatsuji, M. Caricato, X. Li, H. P. Hratchian, 
 A. F. Izmaylov, J. Bloino, G. Zheng, J. L. Sonnenberg, M. Hada, 
 M. Ehara, K. Toyota, R. Fukuda, J. Hasegawa, M. Ishida, T. Nakajima, 
 Y. Honda, O. Kitao, H. Nakai, T. Vreven, J. A. Montgomery, Jr., 
 J. E. Peralta, F. Ogliaro, M. Bearpark, J. J. Heyd, E. Brothers, 
 K. N. Kudin, V. N. Staroverov, T. Keith, R. Kobayashi, J. Normand, 
 K. Raghavachari, A. Rendell, J. C. Burant, S. S. Iyengar, J. Tomasi, 
 M. Cossi, N. Rega, J. M. Millam, M. Klene, J. E. Knox, J. B. Cross, 
 V. Bakken, C. Adamo, J. Jaramillo, R. Gomperts, R. E. Stratmann, 
 O. Yazyev, A. J. Austin, R. Cammi, C. Pomelli, J. W. Ochterski, 
 R. L. Martin, K. Morokuma, V. G. Zakrzewski, G. A. Voth, 
 P. Salvador, J. J. Dannenberg, S. Dapprich, A. D. Daniels, 
 O. Farkas, J. B. Foresman, J. V. Ortiz, J. Cioslowski, 
 and D. J. Fox, Gaussian, Inc., Wallingford CT, 2013.
 
 ******************************************
 Gaussian 09:  ES64L-G09RevE.01 30-Nov-2015
                19-Feb-2019 
 ******************************************
 %chk=3Chloro4TFM_EtO.M062X_6-31pGd_opt_water.chk
 %mem=196608000
 %nproc=8
 Will use up to    8 processors via shared memory.
 ----------------------------------------------------------------------
 # M062X/Gen 6D SCF=Tight INT(grid=ultrafine) OPT IOP(2/17=4) SCRF=(SMD
 ,Solvent=h2o) maxdisk=2684354560
 ----------------------------------------------------------------------
 1/14=-1,18=20,19=15,26=4,38=1/1,3;
 2/9=110,12=2,17=4,18=5,40=1/2;
 3/5=7,8=2,11=2,16=1,25=1,30=1,70=32201,71=1,72=1,74=-55,75=-5/1,2,3;
 4//1;
 5/5=2,32=2,38=5,53=1/2;
 6/7=2,8=2,9=2,10=2,28=1/1;
 7//1,2,3,16;
 1/14=-1,18=20,19=15,26=4/3(2);
 2/9=110,17=4/2;
 99//99;
 2/9=110,17=4/2;
 3/5=7,6=1,8=2,11=2,16=1,25=1,30=1,70=32205,71=1,72=1,74=-55,75=-5,82=7/1,2,3;
 4/5=5,16=3,69=1/1;
 5/5=2,32=2,38=5,53=1/2;
 7//1,2,3,16;
 1/14=-1,18=20,19=15,26=4/3(-5);
 2/9=110,17=4/2;
 6/7=2,8=2,9=2,10=2,19=2,28=1/1;
 99/9=1/99;
 ---------------------------------------
 3Chloro4TFM_EtO.M062X_6-31pGd_opt_water
 ---------------------------------------
 Symbolic Z-matrix:
 Charge = -1 Multiplicity = 1
 C                    -1.9912    2.20004  -0.13356 
 C                    -0.64419   1.4895   -0.03942 
 C                     0.51575   2.48917  -0.10011 
 N                     1.79903   1.8111   -0.01419 
 C                     2.97488   2.50284  -0.04876 
 O                     2.94324   3.71828  -0.15317 
 N                     4.16571   1.8256    0.02903 
 C                     5.49802   2.38126   0.00944 
 C                     5.79041   3.76439  -0.05449 
 C                     6.58365   1.49072   0.05926 
 C                     7.90008   1.9479    0.04401 
 C                     8.19295   3.31772  -0.02025 
 C                     7.11303   4.23377  -0.06934 
 H                    -2.81055   1.45209  -0.08679 
 H                    -2.06941   2.75354  -1.09359 
 H                    -2.11168   2.91297   0.70981 
 H                    -0.55818   0.76947  -0.88223 
 H                    -0.60008   0.92758   0.91894 
 H                     0.42339   3.20654   0.74511 
 H                     0.46288   3.05049  -1.05913 
 H                     1.81879   0.67341   0.08358 
 H                     4.09581   0.68604   0.11492 
 H                     5.02742   4.5183   -0.09151 
 H                     6.42106   0.42312   0.10906 
 H                     8.70226   1.22026   0.08297 
 Cl                    7.32335   5.98274  -0.14988 
 C                     9.65998   3.70621  -0.03134 
 F                     9.87484   5.06788  -0.09469 
 F                     10.2744   3.12594  -1.12661 
 F                     10.26349   3.2321    1.11966 
 O                     1.81046  -1.38743   0.32547 
 O                     4.0377   -1.37594   0.35577 
 C                     2.85393  -2.0218    0.41477 
 C                     2.8441   -3.51688   0.5905 
 C                     1.43475  -4.10672   0.64131 
 H                     3.37129  -3.76697   1.53581 
 H                     3.39534  -3.97784  -0.25668 
 H                     0.86819  -3.67956   1.49629 
 H                     1.49688  -5.20769   0.7716 
 H                     0.89168  -3.89116  -0.30369 
 
 Add virtual bond connecting atoms O31        and H21        Dist= 3.92D+00.
 Add virtual bond connecting atoms O32        and H22        Dist= 3.92D+00.

 GradGradGradGradGradGradGradGradGradGradGradGradGradGradGradGradGradGrad
 Berny optimization.
 Initialization pass.
                           ----------------------------
                           !    Initial Parameters    !
                           ! (Angstroms and Degrees)  !
 --------------------------                            --------------------------
 ! Name  Definition              Value          Derivative Info.                !
 --------------------------------------------------------------------------------
 ! R1    R(1,2)                  1.5258         estimate D2E/DX2                !
 ! R2    R(1,14)                 1.1104         estimate D2E/DX2                !
 ! R3    R(1,15)                 1.1109         estimate D2E/DX2                !
 ! R4    R(1,16)                 1.1109         estimate D2E/DX2                !
 ! R5    R(2,3)                  1.5325         estimate D2E/DX2                !
 ! R6    R(2,17)                 1.1118         estimate D2E/DX2                !
 ! R7    R(2,18)                 1.1118         estimate D2E/DX2                !
 ! R8    R(3,4)                  1.4539         estimate D2E/DX2                !
 ! R9    R(3,19)                 1.1125         estimate D2E/DX2                !
 ! R10   R(3,20)                 1.1125         estimate D2E/DX2                !
 ! R11   R(4,5)                  1.3647         estimate D2E/DX2                !
 ! R12   R(4,21)                 1.1421         estimate D2E/DX2                !
 ! R13   R(5,6)                  1.2203         estimate D2E/DX2                !
 ! R14   R(5,7)                  1.3721         estimate D2E/DX2                !
 ! R15   R(7,8)                  1.4437         estimate D2E/DX2                !
 ! R16   R(7,22)                 1.1449         estimate D2E/DX2                !
 ! R17   R(8,9)                  1.4151         estimate D2E/DX2                !
 ! R18   R(8,10)                 1.405          estimate D2E/DX2                !
 ! R19   R(9,13)                 1.4035         estimate D2E/DX2                !
 ! R20   R(9,23)                 1.0733         estimate D2E/DX2                !
 ! R21   R(10,11)                1.3936         estimate D2E/DX2                !
 ! R22   R(10,24)                1.0811         estimate D2E/DX2                !
 ! R23   R(11,12)                1.4023         estimate D2E/DX2                !
 ! R24   R(11,25)                1.0837         estimate D2E/DX2                !
 ! R25   R(12,13)                1.417          estimate D2E/DX2                !
 ! R26   R(12,27)                1.5176         estimate D2E/DX2                !
 ! R27   R(13,26)                1.7634         estimate D2E/DX2                !
 ! R28   R(21,31)                2.075          estimate D2E/DX2                !
 ! R29   R(22,32)                2.0768         estimate D2E/DX2                !
 ! R30   R(27,28)                1.38           estimate D2E/DX2                !
 ! R31   R(27,29)                1.3834         estimate D2E/DX2                !
 ! R32   R(27,30)                1.3834         estimate D2E/DX2                !
 ! R33   R(31,33)                1.2244         estimate D2E/DX2                !
 ! R34   R(32,33)                1.3498         estimate D2E/DX2                !
 ! R35   R(33,34)                1.5054         estimate D2E/DX2                !
 ! R36   R(34,35)                1.5286         estimate D2E/DX2                !
 ! R37   R(34,36)                1.1109         estimate D2E/DX2                !
 ! R38   R(34,37)                1.1109         estimate D2E/DX2                !
 ! R39   R(35,38)                1.1111         estimate D2E/DX2                !
 ! R40   R(35,39)                1.1104         estimate D2E/DX2                !
 ! R41   R(35,40)                1.111          estimate D2E/DX2                !
 ! A1    A(2,1,14)             109.5813         estimate D2E/DX2                !
 ! A2    A(2,1,15)             110.3335         estimate D2E/DX2                !
 ! A3    A(2,1,16)             110.3503         estimate D2E/DX2                !
 ! A4    A(14,1,15)            108.6666         estimate D2E/DX2                !
 ! A5    A(14,1,16)            108.6803         estimate D2E/DX2                !
 ! A6    A(15,1,16)            109.1891         estimate D2E/DX2                !
 ! A7    A(1,2,3)              111.2222         estimate D2E/DX2                !
 ! A8    A(1,2,17)             108.8503         estimate D2E/DX2                !
 ! A9    A(1,2,18)             108.8783         estimate D2E/DX2                !
 ! A10   A(3,2,17)             109.5042         estimate D2E/DX2                !
 ! A11   A(3,2,18)             109.4992         estimate D2E/DX2                !
 ! A12   A(17,2,18)            108.8465         estimate D2E/DX2                !
 ! A13   A(2,3,4)              111.1922         estimate D2E/DX2                !
 ! A14   A(2,3,19)             109.1307         estimate D2E/DX2                !
 ! A15   A(2,3,20)             109.1056         estimate D2E/DX2                !
 ! A16   A(4,3,19)             109.2152         estimate D2E/DX2                !
 ! A17   A(4,3,20)             109.1597         estimate D2E/DX2                !
 ! A18   A(19,3,20)            109.0055         estimate D2E/DX2                !
 ! A19   A(3,4,5)              121.507          estimate D2E/DX2                !
 ! A20   A(3,4,21)             119.0067         estimate D2E/DX2                !
 ! A21   A(5,4,21)             119.4863         estimate D2E/DX2                !
 ! A22   A(4,5,6)              118.9921         estimate D2E/DX2                !
 ! A23   A(4,5,7)              119.7464         estimate D2E/DX2                !
 ! A24   A(6,5,7)              121.2611         estimate D2E/DX2                !
 ! A25   A(5,7,8)              127.6023         estimate D2E/DX2                !
 ! A26   A(5,7,22)             116.2646         estimate D2E/DX2                !
 ! A27   A(8,7,22)             116.1325         estimate D2E/DX2                !
 ! A28   A(7,8,9)              124.5745         estimate D2E/DX2                !
 ! A29   A(7,8,10)             117.9456         estimate D2E/DX2                !
 ! A30   A(9,8,10)             117.4799         estimate D2E/DX2                !
 ! A31   A(8,9,13)             121.4699         estimate D2E/DX2                !
 ! A32   A(8,9,23)             122.7673         estimate D2E/DX2                !
 ! A33   A(13,9,23)            115.7626         estimate D2E/DX2                !
 ! A34   A(8,10,11)            121.4363         estimate D2E/DX2                !
 ! A35   A(8,10,24)            120.754          estimate D2E/DX2                !
 ! A36   A(11,10,24)           117.8096         estimate D2E/DX2                !
 ! A37   A(10,11,12)           121.2148         estimate D2E/DX2                !
 ! A38   A(10,11,25)           118.5903         estimate D2E/DX2                !
 ! A39   A(12,11,25)           120.195          estimate D2E/DX2                !
 ! A40   A(11,12,13)           118.2908         estimate D2E/DX2                !
 ! A41   A(11,12,27)           116.8907         estimate D2E/DX2                !
 ! A42   A(13,12,27)           124.8185         estimate D2E/DX2                !
 ! A43   A(9,13,12)            120.1083         estimate D2E/DX2                !
 ! A44   A(9,13,26)            116.3958         estimate D2E/DX2                !
 ! A45   A(12,13,26)           123.4959         estimate D2E/DX2                !
 ! A46   A(12,27,28)           113.7928         estimate D2E/DX2                !
 ! A47   A(12,27,29)           109.1314         estimate D2E/DX2                !
 ! A48   A(12,27,30)           109.141          estimate D2E/DX2                !
 ! A49   A(28,27,29)           107.9621         estimate D2E/DX2                !
 ! A50   A(28,27,30)           107.9651         estimate D2E/DX2                !
 ! A51   A(29,27,30)           108.736          estimate D2E/DX2                !
 ! A52   A(21,31,33)           121.308          estimate D2E/DX2                !
 ! A53   A(22,32,33)           120.3102         estimate D2E/DX2                !
 ! A54   A(31,33,32)           119.7555         estimate D2E/DX2                !
 ! A55   A(31,33,34)           121.164          estimate D2E/DX2                !
 ! A56   A(32,33,34)           119.0805         estimate D2E/DX2                !
 ! A57   A(33,34,35)           113.1483         estimate D2E/DX2                !
 ! A58   A(33,34,36)           108.6518         estimate D2E/DX2                !
 ! A59   A(33,34,37)           108.6533         estimate D2E/DX2                !
 ! A60   A(35,34,36)           108.8068         estimate D2E/DX2                !
 ! A61   A(35,34,37)           108.8281         estimate D2E/DX2                !
 ! A62   A(36,34,37)           108.6656         estimate D2E/DX2                !
 ! A63   A(34,35,38)           110.3261         estimate D2E/DX2                !
 ! A64   A(34,35,39)           109.5663         estimate D2E/DX2                !
 ! A65   A(34,35,40)           110.3353         estimate D2E/DX2                !
 ! A66   A(38,35,39)           108.629          estimate D2E/DX2                !
 ! A67   A(38,35,40)           109.3098         estimate D2E/DX2                !
 ! A68   A(39,35,40)           108.6339         estimate D2E/DX2                !
 ! A69   L(4,21,31,2,-1)       178.8077         estimate D2E/DX2                !
 ! A70   L(7,22,32,1,-1)       181.9357         estimate D2E/DX2                !
 ! A71   L(4,21,31,2,-2)       181.9047         estimate D2E/DX2                !
 ! A72   L(7,22,32,1,-2)       182.3657         estimate D2E/DX2                !
 ! D1    D(14,1,2,3)          -179.9879         estimate D2E/DX2                !
 ! D2    D(14,1,2,17)           59.2791         estimate D2E/DX2                !
 ! D3    D(14,1,2,18)          -59.2427         estimate D2E/DX2                !
 ! D4    D(15,1,2,3)            60.4015         estimate D2E/DX2                !
 ! D5    D(15,1,2,17)          -60.3316         estimate D2E/DX2                !
 ! D6    D(15,1,2,18)         -178.8533         estimate D2E/DX2                !
 ! D7    D(16,1,2,3)           -60.3499         estimate D2E/DX2                !
 ! D8    D(16,1,2,17)          178.917          estimate D2E/DX2                !
 ! D9    D(16,1,2,18)           60.3952         estimate D2E/DX2                !
 ! D10   D(1,2,3,4)           -179.8372         estimate D2E/DX2                !
 ! D11   D(1,2,3,19)            59.6245         estimate D2E/DX2                !
 ! D12   D(1,2,3,20)           -59.3844         estimate D2E/DX2                !
 ! D13   D(17,2,3,4)           -59.4896         estimate D2E/DX2                !
 ! D14   D(17,2,3,19)          179.9721         estimate D2E/DX2                !
 ! D15   D(17,2,3,20)           60.9633         estimate D2E/DX2                !
 ! D16   D(18,2,3,4)            59.7835         estimate D2E/DX2                !
 ! D17   D(18,2,3,19)          -60.7547         estimate D2E/DX2                !
 ! D18   D(18,2,3,20)         -179.7636         estimate D2E/DX2                !
 ! D19   D(2,3,4,5)            179.9685         estimate D2E/DX2                !
 ! D20   D(2,3,4,21)             0.0152         estimate D2E/DX2                !
 ! D21   D(19,3,4,5)           -59.5431         estimate D2E/DX2                !
 ! D22   D(19,3,4,21)          120.5036         estimate D2E/DX2                !
 ! D23   D(20,3,4,5)            59.5475         estimate D2E/DX2                !
 ! D24   D(20,3,4,21)         -120.4057         estimate D2E/DX2                !
 ! D25   D(3,4,5,6)              0.061          estimate D2E/DX2                !
 ! D26   D(3,4,5,7)           -179.7086         estimate D2E/DX2                !
 ! D27   D(21,4,5,6)          -179.986          estimate D2E/DX2                !
 ! D28   D(21,4,5,7)             0.2444         estimate D2E/DX2                !
 ! D29   D(3,4,31,33)         -179.4188         estimate D2E/DX2                !
 ! D30   D(5,4,31,33)           -0.6796         estimate D2E/DX2                !
 ! D31   D(4,5,7,8)           -179.9549         estimate D2E/DX2                !
 ! D32   D(4,5,7,22)             0.3389         estimate D2E/DX2                !
 ! D33   D(6,5,7,8)              0.2809         estimate D2E/DX2                !
 ! D34   D(6,5,7,22)          -179.4253         estimate D2E/DX2                !
 ! D35   D(5,7,8,9)              2.0956         estimate D2E/DX2                !
 ! D36   D(5,7,8,10)          -178.009          estimate D2E/DX2                !
 ! D37   D(22,7,8,9)          -178.1979         estimate D2E/DX2                !
 ! D38   D(22,7,8,10)            1.6975         estimate D2E/DX2                !
 ! D39   D(5,7,32,33)           -0.0656         estimate D2E/DX2                !
 ! D40   D(8,7,32,33)          178.725          estimate D2E/DX2                !
 ! D41   D(7,8,9,13)           179.9661         estimate D2E/DX2                !
 ! D42   D(7,8,9,23)             0.1556         estimate D2E/DX2                !
 ! D43   D(10,8,9,13)            0.0703         estimate D2E/DX2                !
 ! D44   D(10,8,9,23)         -179.7403         estimate D2E/DX2                !
 ! D45   D(7,8,10,11)          179.9811         estimate D2E/DX2                !
 ! D46   D(7,8,10,24)            0.0955         estimate D2E/DX2                !
 ! D47   D(9,8,10,11)           -0.1159         estimate D2E/DX2                !
 ! D48   D(9,8,10,24)          179.9984         estimate D2E/DX2                !
 ! D49   D(8,9,13,12)            0.0176         estimate D2E/DX2                !
 ! D50   D(8,9,13,26)         -179.9568         estimate D2E/DX2                !
 ! D51   D(23,9,13,12)         179.8407         estimate D2E/DX2                !
 ! D52   D(23,9,13,26)          -0.1337         estimate D2E/DX2                !
 ! D53   D(8,10,11,12)           0.0742         estimate D2E/DX2                !
 ! D54   D(8,10,11,25)        -179.9231         estimate D2E/DX2                !
 ! D55   D(24,10,11,12)        179.9631         estimate D2E/DX2                !
 ! D56   D(24,10,11,25)         -0.0342         estimate D2E/DX2                !
 ! D57   D(10,11,12,13)          0.017          estimate D2E/DX2                !
 ! D58   D(10,11,12,27)        179.9959         estimate D2E/DX2                !
 ! D59   D(25,11,12,13)       -179.9857         estimate D2E/DX2                !
 ! D60   D(25,11,12,27)         -0.0068         estimate D2E/DX2                !
 ! D61   D(11,12,13,9)          -0.0617         estimate D2E/DX2                !
 ! D62   D(11,12,13,26)        179.9108         estimate D2E/DX2                !
 ! D63   D(27,12,13,9)         179.9612         estimate D2E/DX2                !
 ! D64   D(27,12,13,26)         -0.0662         estimate D2E/DX2                !
 ! D65   D(11,12,27,28)       -179.9583         estimate D2E/DX2                !
 ! D66   D(11,12,27,29)         59.3991         estimate D2E/DX2                !
 ! D67   D(11,12,27,30)        -59.3048         estimate D2E/DX2                !
 ! D68   D(13,12,27,28)          0.0191         estimate D2E/DX2                !
 ! D69   D(13,12,27,29)       -120.6236         estimate D2E/DX2                !
 ! D70   D(13,12,27,30)        120.6725         estimate D2E/DX2                !
 ! D71   D(21,31,33,32)          0.0024         estimate D2E/DX2                !
 ! D72   D(21,31,33,34)        179.9868         estimate D2E/DX2                !
 ! D73   D(22,32,33,31)          0.0124         estimate D2E/DX2                !
 ! D74   D(22,32,33,34)       -179.9723         estimate D2E/DX2                !
 ! D75   D(31,33,34,35)         -0.0507         estimate D2E/DX2                !
 ! D76   D(31,33,34,36)       -121.0047         estimate D2E/DX2                !
 ! D77   D(31,33,34,37)        120.9314         estimate D2E/DX2                !
 ! D78   D(32,33,34,35)        179.9338         estimate D2E/DX2                !
 ! D79   D(32,33,34,36)         58.9798         estimate D2E/DX2                !
 ! D80   D(32,33,34,37)        -59.0841         estimate D2E/DX2                !
 ! D81   D(33,34,35,38)        -60.4514         estimate D2E/DX2                !
 ! D82   D(33,34,35,39)        179.9983         estimate D2E/DX2                !
 ! D83   D(33,34,35,40)         60.4364         estimate D2E/DX2                !
 ! D84   D(36,34,35,38)         60.4148         estimate D2E/DX2                !
 ! D85   D(36,34,35,39)        -59.1354         estimate D2E/DX2                !
 ! D86   D(36,34,35,40)       -178.6974         estimate D2E/DX2                !
 ! D87   D(37,34,35,38)        178.6655         estimate D2E/DX2                !
 ! D88   D(37,34,35,39)         59.1153         estimate D2E/DX2                !
 ! D89   D(37,34,35,40)        -60.4467         estimate D2E/DX2                !
 --------------------------------------------------------------------------------
 Trust Radius=3.00D-01 FncErr=1.00D-07 GrdErr=1.00D-06
 Number of steps in this run=    212 maximum allowed number of steps=    240.
 GradGradGradGradGradGradGradGradGradGradGradGradGradGradGradGradGradGrad

                          Input orientation:                          
 ---------------------------------------------------------------------
 Center     Atomic      Atomic             Coordinates (Angstroms)
 Number     Number       Type             X           Y           Z
 ---------------------------------------------------------------------
      1          6           0       -1.991200    2.200040   -0.133560
      2          6           0       -0.644190    1.489500   -0.039420
      3          6           0        0.515750    2.489170   -0.100110
      4          7           0        1.799030    1.811100   -0.014190
      5          6           0        2.974880    2.502840   -0.048760
      6          8           0        2.943240    3.718280   -0.153170
      7          7           0        4.165710    1.825600    0.029030
      8          6           0        5.498020    2.381260    0.009440
      9          6           0        5.790410    3.764390   -0.054490
     10          6           0        6.583650    1.490720    0.059260
     11          6           0        7.900080    1.947900    0.044010
     12          6           0        8.192950    3.317720   -0.020250
     13          6           0        7.113030    4.233770   -0.069340
     14          1           0       -2.810550    1.452090   -0.086790
     15          1           0       -2.069410    2.753540   -1.093590
     16          1           0       -2.111680    2.912970    0.709810
     17          1           0       -0.558180    0.769470   -0.882230
     18          1           0       -0.600080    0.927580    0.918940
     19          1           0        0.423390    3.206540    0.745110
     20          1           0        0.462880    3.050490   -1.059130
     21          1           0        1.818790    0.673410    0.083580
     22          1           0        4.095810    0.686040    0.114920
     23          1           0        5.027420    4.518300   -0.091510
     24          1           0        6.421060    0.423120    0.109060
     25          1           0        8.702260    1.220260    0.082970
     26         17           0        7.323350    5.982740   -0.149880
     27          6           0        9.659980    3.706210   -0.031340
     28          9           0        9.874840    5.067880   -0.094690
     29          9           0       10.274400    3.125940   -1.126610
     30          9           0       10.263490    3.232100    1.119660
     31          8           0        1.810460   -1.387430    0.325470
     32          8           0        4.037700   -1.375940    0.355770
     33          6           0        2.853930   -2.021800    0.414770
     34          6           0        2.844100   -3.516880    0.590500
     35          6           0        1.434750   -4.106720    0.641310
     36          1           0        3.371290   -3.766970    1.535810
     37          1           0        3.395340   -3.977840   -0.256680
     38          1           0        0.868190   -3.679560    1.496290
     39          1           0        1.496880   -5.207690    0.771600
     40          1           0        0.891680   -3.891160   -0.303690
 ---------------------------------------------------------------------
                    Distance matrix (angstroms):
                    1          2          3          4          5
     1  C    0.000000
     2  C    1.525833   0.000000
     3  C    2.523789   1.532476   0.000000
     4  N    3.812003   2.464424   1.453949   0.000000
     5  C    4.976025   3.758273   2.459704   1.364669   0.000000
     6  O    5.162764   4.224932   2.721440   2.228423   1.220327
     7  N    6.170428   4.822114   3.712036   2.367119   1.372145
     8  C    7.492777   6.206800   4.984642   3.742749   2.526738
     9  C    7.937688   6.824912   5.426814   4.443881   3.085247
    10  C    8.606298   7.228514   6.151562   4.795897   3.749570
    11  C    9.896086   8.556964   7.405543   6.102861   4.957233
    12  C   10.245924   9.024289   7.722194   6.569030   5.281392
    13  C    9.328836   8.228388   6.824125   5.840460   4.485625
    14  H    1.110383   2.167201   3.484248   4.624109   5.880197
    15  H    1.110917   2.177228   2.782076   4.125303   5.157459
    16  H    1.110881   2.177416   2.781900   4.126978   5.159140
    17  H    2.158838   1.111832   2.173110   2.719361   4.022655
    18  H    2.159196   1.111824   2.173040   2.721593   4.024702
    19  H    2.759592   2.168742   1.112451   2.101470   2.763245
    20  H    2.757255   2.168433   1.112472   2.100782   2.762411
    21  H    4.110203   2.597576   2.242463   1.142054   2.168149
    22  H    6.277390   4.810090   4.014268   2.560787   2.141037
    23  H    7.391693   6.429891   4.946980   4.213954   2.876948
    24  H    8.601304   7.146815   6.259792   4.827509   4.028188
    25  H   10.740435   9.351128   8.286290   6.929150   5.870711
    26  Cl  10.053354   9.147847   7.651858   6.923807   5.570379
    27  C   11.748574  10.539914   9.225121   8.086178   6.792567
    28  F   12.207740  11.111159   9.707849   8.708146   7.361453
    29  F   12.340518  11.093941   9.833129   8.648594   7.404931
    30  F   12.361761  11.106647   9.851813   8.657479   7.417605
    31  O    5.247215   3.799365   4.109187   3.216534   4.078005
    32  O    7.026714   5.503364   5.248908   3.912255   4.042050
    33  C    6.449797   4.977184   5.106960   3.998493   4.549929
    34  C    7.522471   6.134232   6.478487   5.463075   6.054980
    35  C    7.218918   6.008582   6.700748   5.965147   6.821619
    36  H    8.194407   6.799699   7.068920   5.999114   6.479083
    37  H    8.197327   6.801236   7.080874   6.009895   6.497633
    38  H    6.738117   5.600436   6.381688   5.770213   6.711735
    39  H    8.237747   7.077732   7.807954   7.069100   7.893652
    40  H    6.741117   5.601807   6.394637   5.781251   6.729632
                    6          7          8          9         10
     6  O    0.000000
     7  N    2.260502   0.000000
     8  C    2.888073   1.443673   0.000000
     9  C    2.849253   2.530915   1.415142   0.000000
    10  C    4.273141   2.441207   1.405040   2.410756   0.000000
    11  C    5.267199   3.736402   2.441083   2.785686   1.393641
    12  C    5.266647   4.295057   2.853154   2.443949   2.436000
    13  C    4.202369   3.807316   2.458914   1.403518   2.796624
    14  H    6.184345   6.987212   8.360918   8.906418   9.395415
    15  H    5.190547   6.402974   7.656452   7.992391   8.820387
    16  H    5.190903   6.407141   7.660337   7.984491   8.834861
    17  H    4.635402   4.925540   6.330126   7.068189   7.239637
    18  H    4.636005   4.930632   6.334603   7.059279   7.256869
    19  H    2.723679   4.052743   5.193666   5.454857   6.431425
    20  H    2.723764   4.049123   5.190602   5.468229   6.414632
    21  H    3.254485   2.615062   4.056967   5.034579   4.834509
    22  H    3.254961   1.144928   2.202519   3.518040   2.615331
    23  H    2.233303   2.829789   2.190570   1.073268   3.407466
    24  H    4.798133   2.657058   2.167081   3.404196   1.081057
    25  H    6.281893   4.577077   3.408883   3.869155   2.135935
    26  Cl   4.930837   5.223458   4.040776   2.698163   4.557317
    27  C    6.717856   5.807525   4.367959   3.870077   3.792151
    28  F    7.062005   6.566723   5.136665   4.287572   4.863302
    29  F    7.419189   6.351573   4.965779   4.654377   4.207359
    30  F    7.445974   6.352215   4.966510   4.655148   4.206908
    31  O    5.251720   3.994827   5.282140   6.521167   5.580140
    32  O    5.235259   3.220715   4.045866   5.446402   3.845454
    33  C    5.768800   4.083142   5.151936   6.505622   5.135659
    34  C    7.273954   5.532088   6.493765   7.881221   6.272361
    35  C    8.008581   6.559379   7.681361   9.022765   7.627666
    36  H    7.685366   5.846223   6.682329   8.068617   6.335832
    37  H    7.710082   5.861315   6.703002   8.106748   6.338003
    38  H    7.858409   6.582802   7.770430   9.057900   7.839855
    39  H    9.089560   7.559182   8.612907   9.980734   8.441052
    40  H    7.882584   6.596311   7.788432   9.092145   7.841868
                   11         12         13         14         15
    11  C    0.000000
    12  C    1.402251   0.000000
    13  C    2.420227   1.416963   0.000000
    14  H   10.722898  11.160735  10.306090   0.000000
    15  H   10.066475  10.333750   9.357210   1.804635   0.000000
    16  H   10.080178  10.338385   9.351303   1.804761   1.810927
    17  H    8.590040   9.155264   8.456337   2.484324   2.503003
    18  H    8.605770   9.160362   8.449832   2.484508   3.089229
    19  H    7.614237   7.807957   6.816877   3.772071   3.130508
    20  H    7.598985   7.804144   6.826736   3.770368   2.549874
    21  H    6.213532   6.901672   6.381890   4.697463   4.564074
    22  H    4.008714   4.871403   4.660897   6.951642   6.614000
    23  H    3.857136   3.386303   2.105046   8.416379   7.381297
    24  H    2.125250   3.396325   3.877074   9.290843   8.886242
    25  H    1.083730   2.160877   3.410292  11.516395  10.943679
    26  Cl   4.080459   2.806304   1.763411  11.100752   9.977087
    27  C    2.488891   1.517638   2.601292  12.672736  11.815860
    28  F    3.695022   2.428447   2.885130  13.190645  12.207337
    29  F    2.897503   2.365004   3.512744  13.232495  12.349470
    30  F    2.896878   2.365135   3.513184  13.249697  12.539056
    31  O    6.948893   7.936885   7.737636   5.439353   5.849338
    32  O    5.105202   6.279963   6.411491   7.422408   7.513324
    33  C    6.431144   7.563389   7.583301   6.663768   7.022699
    34  C    7.464945   8.700286   8.873090   7.558072   8.142291
    35  C    8.877820  10.061473  10.114923   7.032288   7.896340
    36  H    7.442791   8.709912   8.977136   8.251458   8.889995
    37  H    7.449664   8.734882   9.015922   8.247792   8.710648
    38  H    9.122768  10.242750  10.201471   6.509462   7.531384
    39  H    9.629788  10.869544  11.017690   7.977685   8.920681
    40  H    9.128701  10.264348  10.235947   6.504143   7.317379
                   16         17         18         19         20
    16  H    0.000000
    17  H    3.089101   0.000000
    18  H    2.504085   1.808582   0.000000
    19  H    2.552256   3.090473   2.504270   0.000000
    20  H    3.126727   2.505376   3.090209   1.811406   0.000000
    21  H    4.566879   2.567490   2.571646   2.966734   2.965601
    22  H    6.621634   4.760346   4.770343   4.498525   4.490790
    23  H    7.361110   6.773322   6.751521   4.859809   4.891399
    24  H    8.908867   7.057790   7.085675   6.642592   6.615712
    25  H   10.963553   9.321511   9.344412   8.539521   8.517131
    26  Cl   9.959033   9.478029   9.459269   7.491178   7.516041
    27  C   11.821612  10.665798  10.672050   9.282626   9.277552
    28  F   12.205225  11.311253  11.309000   9.669527   9.673934
    29  F   12.523289  11.088619  11.281462  10.027573   9.812042
    30  F   12.386067  11.277440  11.107126   9.847259  10.041517
    31  O    5.833039   3.423626   3.394434   4.817118   4.840271
    32  O    7.505662   5.220876   5.208874   5.849269   5.862982
    33  C    7.006874   4.595203   4.569816   5.775135   5.798071
    34  C    8.118926   5.667207   5.632359   7.147595   7.177871
    35  C    7.864980   5.483628   5.437075   7.383590   7.420356
    36  H    8.681407   6.470467   6.179895   7.612172   7.853045
    37  H    8.873817   6.209556   6.434952   7.839093   7.657720
    38  H    7.277337   5.242686   4.869794   6.941217   7.210272
    39  H    8.886543   6.533366   6.485406   8.482473   8.521635
    40  H    7.506233   4.915107   5.190417   7.190036   6.995789
                   21         22         23         24         25
    21  H    0.000000
    22  H    2.277271   0.000000
    23  H    5.010902   3.949269   0.000000
    24  H    4.609141   2.340075   4.330469   0.000000
    25  H    6.905158   4.637434   4.940846   2.416606   0.000000
    26  Cl   7.651383   6.208234   2.723837   5.638311   4.963550
    27  C    8.408052   6.332678   4.703586   4.614000   2.666504
    28  F    9.178403   7.255456   4.878476   5.791710   4.026250
    29  F    8.886889   6.757920   5.526382   4.866246   2.750695
    30  F    8.884442   6.747755   5.526090   4.865794   2.749485
    31  O    2.075004   3.092965   6.737978   4.958080   7.372636
    32  O    3.032735   2.076812   5.993469   2.996312   5.345353
    33  C    2.906090   2.994090   6.910375   4.335379   6.695073
    34  C    4.343588   4.411065   8.354409   5.343223   7.550902
    35  C    4.827856   5.507166   9.372047   6.757664   9.028021
    36  H    4.923028   4.730027   8.604454   5.375274   7.443282
    37  H    4.922948   4.730806   8.653055   5.353242   7.436330
    38  H    4.674156   5.602158   9.328730   7.042070   9.347639
    39  H    5.929952   6.474698  10.382897   7.509496   9.680406
    40  H    4.673843   5.602896   9.373814   7.025483   9.342445
                   26         27         28         29         30
    26  Cl   0.000000
    27  C    3.264426   0.000000
    28  F    2.711110   1.379972   0.000000
    29  F    4.221848   1.383417   2.235092   0.000000
    30  F    4.221632   1.383404   2.235125   2.248804   0.000000
    31  O    9.216145   9.364158  10.338365   9.701408   9.665636
    32  O    8.074735   7.588685   8.706201   7.833314   7.783188
    33  C    9.185162   8.906819   9.990810   9.161793   9.110539
    34  C   10.528752   9.950675  11.117504  10.113599  10.043709
    35  C   11.708919  11.364363  12.487998  11.557522  11.490594
    36  H   10.654444   9.892017  11.090954  10.112053   9.831713
    37  H   10.707653   9.916709  11.128127   9.926829  10.052315
    38  H   11.736226  11.583558  12.655776  11.902572  11.669814
    39  H   12.650004  12.113568  13.286384  12.251426  12.173933
    40  H   11.784903  11.605055  12.688784  11.745311  11.857385
                   31         32         33         34         35
    31  O    0.000000
    32  O    2.227476   0.000000
    33  C    1.224430   1.349788   0.000000
    34  C    2.381850   2.462398   1.505404   0.000000
    35  C    2.763232   3.783390   2.532249   1.528647   0.000000
    36  H    3.092462   2.748385   2.137758   1.110894   2.160034
    37  H    3.092081   2.749110   2.137770   1.110884   2.160303
    38  H    2.740904   4.080839   2.803751   2.179711   1.111057
    39  H    3.858983   4.616383   3.481208   2.169479   1.110392
    40  H    2.740194   4.081502   2.803768   2.179818   1.111043
                   36         37         38         39         40
    36  H    0.000000
    37  H    1.805011   0.000000
    38  H    2.504938   3.090042   0.000000
    39  H    2.484573   2.484762   1.804330   0.000000
    40  H    3.089927   2.505601   1.812527   1.804374   0.000000
 Stoichiometry    C14H17ClF3N2O3(1-)
 Framework group  C1[X(C14H17ClF3N2O3)]
 Deg. of freedom   114
 Full point group                 C1      NOp   1
 Largest Abelian subgroup         C1      NOp   1
 Largest concise Abelian subgroup C1      NOp   1
                         Standard orientation:                         
 ---------------------------------------------------------------------
 Center     Atomic      Atomic             Coordinates (Angstroms)
 Number     Number       Type             X           Y           Z
 ---------------------------------------------------------------------
      1          6           0       -5.768409   -3.730301    0.036183
      2          6           0       -4.976916   -2.425808    0.035417
      3          6           0       -3.467867   -2.692561    0.025435
      4          7           0       -2.714291   -1.449146    0.028561
      5          6           0       -1.349656   -1.442236    0.021637
      6          8           0       -0.752824   -2.506607    0.011489
      7          7           0       -0.674835   -0.247535    0.030952
      8          6           0        0.754259   -0.042974    0.024910
      9          6           0        1.713889   -1.081325   -0.034784
     10          6           0        1.230613    1.277708    0.079899
     11          6           0        2.595630    1.558706    0.078417
     12          6           0        3.548884    0.531946    0.020303
     13          6           0        3.090443   -0.807552   -0.037681
     14          1           0       -6.855835   -3.505788    0.043255
     15          1           0       -5.523292   -4.330018    0.938621
     16          1           0       -5.533797   -4.325052   -0.872269
     17          1           0       -5.244787   -1.842563    0.943293
     18          1           0       -5.255580   -1.836480   -0.865246
     19          1           0       -3.206884   -3.276562   -0.884717
     20          1           0       -3.197016   -3.285914    0.926638
     21          1           0       -3.281414   -0.457897    0.037827
     22          1           0       -1.319581    0.698395    0.050446
     23          1           0        1.444558   -2.119113   -0.083385
     24          1           0        0.544098    2.111486    0.126770
     25          1           0        2.911989    2.594256    0.123408
     26         17           0        4.166930   -2.202028   -0.116612
     27          6           0        5.008080    0.949028    0.024067
     28          9           0        5.890120   -0.110572   -0.035733
     29          9           0        5.273373    1.660212    1.180648
     30          9           0        5.248945    1.766729   -1.065499
     31          8           0       -4.348623    1.320964   -0.010752
     32          8           0       -2.430109    2.452684    0.002025
     33          6           0       -3.778868    2.404720   -0.019809
     34          6           0       -4.556359    3.693318   -0.055371
     35          6           0       -6.070064    3.481396   -0.078739
     36          1           0       -4.260302    4.261967   -0.962606
     37          1           0       -4.292061    4.292632    0.841865
     38          1           0       -6.365028    2.903840   -0.980888
     39          1           0       -6.583032    4.465863   -0.104435
     40          1           0       -6.397410    2.934167    0.831096
 ---------------------------------------------------------------------
 Rotational constants (GHZ):      0.3207089      0.0890354      0.0708068
 General basis read from cards:  (6D, 7F)
 There are   475 symmetry adapted cartesian basis functions of A   symmetry.
 There are   475 symmetry adapted basis functions of A   symmetry.
   475 basis functions,   828 primitive gaussians,   475 cartesian basis functions
    92 alpha electrons       92 beta electrons
       nuclear repulsion energy      2027.1071409121 Hartrees.
 NAtoms=   40 NActive=   40 NUniq=   40 SFac= 1.00D+00 NAtFMM=   60 NAOKFM=F Big=F
 Integral buffers will be    131072 words long.
 Raffenetti 2 integral format.
 Two-electron integral symmetry is turned on.
 ------------------------------------------------------------------------------
 Polarizable Continuum Model (PCM)
 =================================
 Model                : PCM (using non-symmetric T matrix).
 Atomic radii         : SMD-Coulomb.
 Polarization charges : Total charges.
 Charge compensation  : None.
 Solution method      : On-the-fly selection.
 Cavity type          : VdW (van der Waals Surface) (Alpha=1.000).
 Cavity algorithm     : GePol (No added spheres)
                        Default sphere list used, NSphG=   40.
                        Lebedev-Laikov grids with approx.  5.0 points / Ang**2.
                        Smoothing algorithm: York/Karplus (Gamma=1.0000).
                        Polarization charges: spherical gaussians, with
                                              point-specific exponents (IZeta= 3).
                        Self-potential: point-specific (ISelfS= 7).
                        Self-field    : sphere-specific E.n sum rule (ISelfD= 2).
 1st derivatives      : Analytical E(r).r(x)/FMM algorithm (CHGder, D1EAlg=3).
                        Cavity 1st derivative terms included.
 Solvent              : Water, Eps=  78.355300 Eps(inf)=   1.777849
 ------------------------------------------------------------------------------
 ------------------------------------------------------------------------------
 Atomic radii for non-electrostatic terms: SMD-CDS.
 ------------------------------------------------------------------------------
 Nuclear repulsion after PCM non-electrostatic terms =     2027.1222039310 Hartrees.
 One-electron integrals computed using PRISM.
 NBasis=   475 RedAO= T EigKep=  1.82D-06  NBF=   475
 NBsUse=   473 1.00D-06 EigRej=  9.60D-07 NBFU=   473
 ExpMin= 4.38D-02 ExpMax= 2.52D+04 ExpMxC= 3.78D+03 IAcc=3 IRadAn=         5 AccDes= 0.00D+00
 Harris functional with IExCor= 1009 and IRadAn=       5 diagonalized for initial guess.
 HarFok:  IExCor= 1009 AccDes= 0.00D+00 IRadAn=         5 IDoV= 1 UseB2=F ITyADJ=14
 ICtDFT=  3500011 ScaDFX=  1.000000  1.000000  1.000000  1.000000
 FoFCou: FMM=F IPFlag=           0 FMFlag=      100000 FMFlg1=           0
         NFxFlg=           0 DoJE=T BraDBF=F KetDBF=T FulRan=T
         wScrn=  0.000000 ICntrl=     500 IOpCl=  0 I1Cent=   200000004 NGrid=           0
         NMat0=    1 NMatS0=      1 NMatT0=    0 NMatD0=    1 NMtDS0=    0 NMtDT0=    0
 Petite list used in FoFCou.
 Requested convergence on RMS density matrix=1.00D-08 within 128 cycles.
 Requested convergence on MAX density matrix=1.00D-06.
 Requested convergence on             energy=1.00D-06.
 No special actions if energy rises.
 Inv3:  Mode=1 IEnd=    30893043.
 Iteration    1 A*A^-1 deviation from unit magnitude is 6.22D-15 for   3204.
 Iteration    1 A*A^-1 deviation from orthogonality  is 3.56D-15 for   2228    491.
 Iteration    1 A^-1*A deviation from unit magnitude is 6.66D-15 for   3204.
 Iteration    1 A^-1*A deviation from orthogonality  is 9.37D-12 for   2890   2869.
 Error on total polarization charges =  0.06331
 SCF Done:  E(RM062X) =  -1638.36452622     A.U. after   15 cycles
            NFock= 15  Conv=0.62D-08     -V/T= 2.0074
 SMD-CDS (non-electrostatic) energy       (kcal/mol) =       9.45
 (included in total energy above)

 **********************************************************************

            Population analysis using the SCF density.

 **********************************************************************

 Orbital symmetries:
       Occupied  (A) (A) (A) (A) (A) (A) (A) (A) (A) (A) (A) (A)
                 (A) (A) (A) (A) (A) (A) (A) (A) (A) (A) (A) (A)
                 (A) (A) (A) (A) (A) (A) (A) (A) (A) (A) (A) (A)
                 (A) (A) (A) (A) (A) (A) (A) (A) (A) (A) (A) (A)
                 (A) (A) (A) (A) (A) (A) (A) (A) (A) (A) (A) (A)
                 (A) (A) (A) (A) (A) (A) (A) (A) (A) (A) (A) (A)
                 (A) (A) (A) (A) (A) (A) (A) (A) (A) (A) (A) (A)
                 (A) (A) (A) (A) (A) (A) (A) (A)
       Virtual   (A) (A) (A) (A) (A) (A) (A) (A) (A) (A) (A) (A)
                 (A) (A) (A) (A) (A) (A) (A) (A) (A) (A) (A) (A)
                 (A) (A) (A) (A) (A) (A) (A) (A) (A) (A) (A) (A)
                 (A) (A) (A) (A) (A) (A) (A) (A) (A) (A) (A) (A)
                 (A) (A) (A) (A) (A) (A) (A) (A) (A) (A) (A) (A)
                 (A) (A) (A) (A) (A) (A) (A) (A) (A) (A) (A) (A)
                 (A) (A) (A) (A) (A) (A) (A) (A) (A) (A) (A) (A)
                 (A) (A) (A) (A) (A) (A) (A) (A) (A) (A) (A) (A)
                 (A) (A) (A) (A) (A) (A) (A) (A) (A) (A) (A) (A)
                 (A) (A) (A) (A) (A) (A) (A) (A) (A) (A) (A) (A)
                 (A) (A) (A) (A) (A) (A) (A) (A) (A) (A) (A) (A)
                 (A) (A) (A) (A) (A) (A) (A) (A) (A) (A) (A) (A)
                 (A) (A) (A) (A) (A) (A) (A) (A) (A) (A) (A) (A)
                 (A) (A) (A) (A) (A) (A) (A) (A) (A) (A) (A) (A)
                 (A) (A) (A) (A) (A) (A) (A) (A) (A) (A) (A) (A)
                 (A) (A) (A) (A) (A) (A) (A) (A) (A) (A) (A) (A)
                 (A) (A) (A) (A) (A) (A) (A) (A) (A) (A) (A) (A)
                 (A) (A) (A) (A) (A) (A) (A) (A) (A) (A) (A) (A)
                 (A) (A) (A) (A) (A) (A) (A) (A) (A) (A) (A) (A)
                 (A) (A) (A) (A) (A) (A) (A) (A) (A) (A) (A) (A)
                 (A) (A) (A) (A) (A) (A) (A) (A) (A) (A) (A) (A)
                 (A) (A) (A) (A) (A) (A) (A) (A) (A) (A) (A) (A)
                 (A) (A) (A) (A) (A) (A) (A) (A) (A) (A) (A) (A)
                 (A) (A) (A) (A) (A) (A) (A) (A) (A) (A) (A) (A)
                 (A) (A) (A) (A) (A) (A) (A) (A) (A) (A) (A) (A)
                 (A) (A) (A) (A) (A) (A) (A) (A) (A) (A) (A) (A)
                 (A) (A) (A) (A) (A) (A) (A) (A) (A) (A) (A) (A)
                 (A) (A) (A) (A) (A) (A) (A) (A) (A) (A) (A) (A)
                 (A) (A) (A) (A) (A) (A) (A) (A) (A) (A) (A) (A)
                 (A) (A) (A) (A) (A) (A) (A) (A) (A) (A) (A) (A)
                 (A) (A) (A) (A) (A) (A) (A) (A) (A) (A) (A) (A)
                 (A) (A) (A) (A) (A) (A) (A) (A) (A)
 The electronic state is 1-A.
 Alpha  occ. eigenvalues -- -102.68272 -25.31110 -25.30945 -25.30942 -19.61391
 Alpha  occ. eigenvalues --  -19.61358 -19.59381 -14.80577 -14.78168 -10.83033
 Alpha  occ. eigenvalues --  -10.68474 -10.65224 -10.64297 -10.63088 -10.59705
 Alpha  occ. eigenvalues --  -10.58081 -10.57694 -10.57245 -10.56845 -10.54331
 Alpha  occ. eigenvalues --  -10.54282 -10.53287 -10.53239  -9.82885  -7.55301
 Alpha  occ. eigenvalues --   -7.54630  -7.54588  -1.45150  -1.37319  -1.37207
 Alpha  occ. eigenvalues --   -1.18538  -1.16718  -1.04172  -1.03895  -1.01391
 Alpha  occ. eigenvalues --   -0.99859  -0.94531  -0.89340  -0.86829  -0.86002
 Alpha  occ. eigenvalues --   -0.84580  -0.80997  -0.76840  -0.72863  -0.71933
 Alpha  occ. eigenvalues --   -0.71497  -0.68707  -0.67961  -0.66905  -0.65494
 Alpha  occ. eigenvalues --   -0.65158  -0.61400  -0.59761  -0.58685  -0.57447
 Alpha  occ. eigenvalues --   -0.57437  -0.55240  -0.55158  -0.54295  -0.53952
 Alpha  occ. eigenvalues --   -0.53495  -0.53137  -0.52930  -0.52525  -0.52081
 Alpha  occ. eigenvalues --   -0.51836  -0.50749  -0.50640  -0.49748  -0.48979
 Alpha  occ. eigenvalues --   -0.47960  -0.45829  -0.45554  -0.45379  -0.45129
 Alpha  occ. eigenvalues --   -0.43595  -0.43241  -0.42012  -0.41402  -0.40927
 Alpha  occ. eigenvalues --   -0.39779  -0.39158  -0.38946  -0.38307  -0.37511
 Alpha  occ. eigenvalues --   -0.35195  -0.33116  -0.32933  -0.32049  -0.31713
 Alpha  occ. eigenvalues --   -0.31238  -0.28093
 Alpha virt. eigenvalues --   -0.00769   0.00132   0.01375   0.02464   0.03030
 Alpha virt. eigenvalues --    0.03542   0.03861   0.03916   0.04629   0.04866
 Alpha virt. eigenvalues --    0.05159   0.05449   0.05980   0.06120   0.06535
 Alpha virt. eigenvalues --    0.07082   0.07300   0.07522   0.07797   0.07903
 Alpha virt. eigenvalues --    0.08045   0.08771   0.09672   0.09711   0.09989
 Alpha virt. eigenvalues --    0.10219   0.10484   0.10552   0.10692   0.10881
 Alpha virt. eigenvalues --    0.11502   0.12597   0.12658   0.12867   0.12985
 Alpha virt. eigenvalues --    0.13449   0.13554   0.13879   0.14062   0.14769
 Alpha virt. eigenvalues --    0.14915   0.15638   0.15784   0.16172   0.16701
 Alpha virt. eigenvalues --    0.17031   0.17873   0.18140   0.18200   0.19280
 Alpha virt. eigenvalues --    0.19578   0.19615   0.20562   0.20593   0.20829
 Alpha virt. eigenvalues --    0.21213   0.21819   0.22033   0.22286   0.22854
 Alpha virt. eigenvalues --    0.23408   0.23515   0.23777   0.24449   0.24615
 Alpha virt. eigenvalues --    0.24717   0.24816   0.25051   0.25470   0.25580
 Alpha virt. eigenvalues --    0.26250   0.26782   0.27114   0.27293   0.27758
 Alpha virt. eigenvalues --    0.28074   0.28210   0.28362   0.28563   0.29398
 Alpha virt. eigenvalues --    0.29715   0.30093   0.30224   0.30355   0.30732
 Alpha virt. eigenvalues --    0.31475   0.31716   0.31999   0.32452   0.32605
 Alpha virt. eigenvalues --    0.33047   0.33167   0.33346   0.33921   0.34345
 Alpha virt. eigenvalues --    0.34581   0.35098   0.35563   0.36017   0.36490
 Alpha virt. eigenvalues --    0.36836   0.37368   0.37808   0.38262   0.38720
 Alpha virt. eigenvalues --    0.38967   0.39344   0.40113   0.40607   0.40703
 Alpha virt. eigenvalues --    0.41148   0.41791   0.42710   0.43051   0.43475
 Alpha virt. eigenvalues --    0.44067   0.44586   0.44992   0.45441   0.45909
 Alpha virt. eigenvalues --    0.46912   0.48205   0.49326   0.50318   0.51838
 Alpha virt. eigenvalues --    0.52328   0.52909   0.54016   0.54567   0.55782
 Alpha virt. eigenvalues --    0.58534   0.58900   0.60726   0.61479   0.65357
 Alpha virt. eigenvalues --    0.67979   0.70174   0.70480   0.70587   0.71337
 Alpha virt. eigenvalues --    0.71489   0.72234   0.72496   0.73502   0.74570
 Alpha virt. eigenvalues --    0.75227   0.75571   0.76470   0.76474   0.77886
 Alpha virt. eigenvalues --    0.78098   0.78888   0.79727   0.79854   0.80586
 Alpha virt. eigenvalues --    0.81409   0.82411   0.82752   0.83010   0.83379
 Alpha virt. eigenvalues --    0.84634   0.85877   0.86180   0.86954   0.88014
 Alpha virt. eigenvalues --    0.89363   0.90438   0.91041   0.92628   0.93561
 Alpha virt. eigenvalues --    0.94284   0.95737   0.96416   0.96879   0.98189
 Alpha virt. eigenvalues --    0.98743   1.00003   1.01015   1.01460   1.01731
 Alpha virt. eigenvalues --    1.02308   1.03431   1.05664   1.05855   1.05989
 Alpha virt. eigenvalues --    1.06280   1.06770   1.08081   1.08404   1.09812
 Alpha virt. eigenvalues --    1.12053   1.12164   1.14178   1.15242   1.15984
 Alpha virt. eigenvalues --    1.16145   1.17494   1.17966   1.18436   1.18981
 Alpha virt. eigenvalues --    1.20172   1.20888   1.22466   1.22701   1.23982
 Alpha virt. eigenvalues --    1.24847   1.26223   1.27832   1.29796   1.30008
 Alpha virt. eigenvalues --    1.30897   1.31840   1.32529   1.32706   1.34612
 Alpha virt. eigenvalues --    1.35327   1.37232   1.39211   1.39748   1.40228
 Alpha virt. eigenvalues --    1.41387   1.43920   1.44562   1.45485   1.46339
 Alpha virt. eigenvalues --    1.46865   1.47773   1.48496   1.48990   1.50528
 Alpha virt. eigenvalues --    1.51356   1.51856   1.52440   1.54172   1.57058
 Alpha virt. eigenvalues --    1.57428   1.57707   1.57928   1.61294   1.61555
 Alpha virt. eigenvalues --    1.63900   1.64208   1.66511   1.66647   1.67089
 Alpha virt. eigenvalues --    1.68406   1.71390   1.73034   1.73219   1.74065
 Alpha virt. eigenvalues --    1.74281   1.75227   1.75640   1.76587   1.78773
 Alpha virt. eigenvalues --    1.79174   1.82038   1.82985   1.84121   1.85316
 Alpha virt. eigenvalues --    1.86123   1.86340   1.87053   1.87377   1.88091
 Alpha virt. eigenvalues --    1.88124   1.89402   1.89608   1.90735   1.90764
 Alpha virt. eigenvalues --    1.91088   1.91747   1.93126   1.93629   1.94960
 Alpha virt. eigenvalues --    1.95824   1.96891   1.96932   1.98304   1.99520
 Alpha virt. eigenvalues --    2.02736   2.02806   2.03014   2.03806   2.04708
 Alpha virt. eigenvalues --    2.05396   2.06487   2.06716   2.07265   2.07902
 Alpha virt. eigenvalues --    2.08542   2.08713   2.08982   2.10383   2.11570
 Alpha virt. eigenvalues --    2.11959   2.12719   2.14443   2.14615   2.16627
 Alpha virt. eigenvalues --    2.16850   2.17969   2.21158   2.22124   2.23201
 Alpha virt. eigenvalues --    2.25287   2.25907   2.28044   2.29248   2.29876
 Alpha virt. eigenvalues --    2.31142   2.31205   2.32265   2.35667   2.36810
 Alpha virt. eigenvalues --    2.37409   2.38301   2.38690   2.39162   2.41014
 Alpha virt. eigenvalues --    2.42095   2.47526   2.47622   2.49603   2.55071
 Alpha virt. eigenvalues --    2.55305   2.56925   2.60201   2.62037   2.63926
 Alpha virt. eigenvalues --    2.64052   2.66303   2.67256   2.70551   2.71216
 Alpha virt. eigenvalues --    2.73451   2.75694   2.76747   2.78309   2.79632
 Alpha virt. eigenvalues --    2.80655   2.84066   2.86289   2.87565   2.91807
 Alpha virt. eigenvalues --    2.96264   3.00104   3.02872   3.11107   3.12448
 Alpha virt. eigenvalues --    3.13277   3.15429   3.18250   3.25851   3.26684
 Alpha virt. eigenvalues --    3.27403   3.33007   3.39187   4.20238   4.22644
 Alpha virt. eigenvalues --    4.26342   4.29075   4.30752   4.32423   4.39588
 Alpha virt. eigenvalues --    4.40779   4.42341   4.42712   4.45899   4.47663
 Alpha virt. eigenvalues --    4.48941   4.52795   4.57013   4.62337   4.64308
 Alpha virt. eigenvalues --    4.70384   4.74590   4.78963   5.44068   6.04710
 Alpha virt. eigenvalues --    6.81841
          Condensed to atoms (all electrons):
               1          2          3          4          5          6
     1  C    5.796903  -0.146753   0.026215  -0.008050  -0.047478  -0.001519
     2  C   -0.146753   6.234160  -0.446591  -0.052242   0.176560   0.020556
     3  C    0.026215  -0.446591   7.302429   0.328290  -0.818836  -0.097584
     4  N   -0.008050  -0.052242   0.328290   7.625959   0.491474  -0.192719
     5  C   -0.047478   0.176560  -0.818836   0.491474   6.802915   0.560007
     6  O   -0.001519   0.020556  -0.097584  -0.192719   0.560007   8.494418
     7  N   -0.003532   0.012832  -0.207798  -0.324081   0.265390  -0.088655
     8  C   -0.004544   0.019108  -0.261830  -0.128837  -0.053773  -0.336111
     9  C   -0.007217  -0.008923  -0.192858  -0.052793  -0.417292   0.369518
    10  C    0.000581   0.008793  -0.046886  -0.047443  -0.657866  -0.102899
    11  C    0.000320   0.000390   0.021292   0.001650   0.313101  -0.021492
    12  C   -0.000520   0.001752  -0.059637  -0.022176  -0.858489   0.001069
    13  C   -0.001012  -0.000972  -0.057359  -0.008780  -0.271976   0.121865
    14  H    0.437599  -0.111215   0.026831   0.000385  -0.002420   0.000005
    15  H    0.422234  -0.068050  -0.011840   0.000472   0.001192  -0.000035
    16  H    0.422492  -0.068133  -0.011093   0.000483   0.000276  -0.000040
    17  H   -0.021599   0.416884  -0.078555   0.006879  -0.007788  -0.000146
    18  H   -0.025117   0.421622  -0.086282   0.006663  -0.001281  -0.000096
    19  H   -0.002948  -0.047169   0.445092  -0.050398  -0.036657   0.001966
    20  H   -0.003158  -0.045592   0.447902  -0.051184  -0.039188   0.002422
    21  H   -0.002281   0.000656  -0.058944   0.192297   0.027032   0.005504
    22  H    0.000067   0.000106   0.003615   0.026840  -0.041547   0.004074
    23  H    0.000005   0.000067   0.001783   0.000108   0.001926  -0.001991
    24  H   -0.000002   0.000022  -0.000325   0.000424  -0.003325   0.000020
    25  H    0.000000   0.000000   0.000039   0.000014   0.005463  -0.000000
    26  Cl   0.000012  -0.000080   0.001526   0.000995   0.009086  -0.002241
    27  C   -0.000017   0.000042  -0.003053   0.000294  -0.116342   0.001670
    28  F   -0.000000   0.000000   0.000000   0.000000   0.000216   0.000003
    29  F   -0.000000  -0.000000  -0.000002  -0.000000  -0.000371  -0.000000
    30  F   -0.000000   0.000000  -0.000003  -0.000000  -0.000468   0.000000
    31  O    0.002381   0.005827  -0.011031  -0.013204   0.001700   0.000019
    32  O    0.000087  -0.002518   0.015683   0.010035   0.001863  -0.000453
    33  C   -0.002101  -0.007160   0.006662  -0.009965  -0.005510  -0.000548
    34  C    0.001525  -0.000166   0.013489  -0.008781  -0.015994  -0.000322
    35  C    0.000001   0.000325  -0.002599   0.002235   0.000904   0.000041
    36  H    0.000000   0.000002   0.000014   0.000028  -0.000070  -0.000000
    37  H    0.000001   0.000015   0.000002   0.000023  -0.000109  -0.000000
    38  H   -0.000001  -0.000050  -0.000056   0.000012  -0.000011   0.000000
    39  H   -0.000001   0.000006  -0.000002   0.000002   0.000011   0.000000
    40  H   -0.000020  -0.000078  -0.000045   0.000022   0.000001  -0.000000
               7          8          9         10         11         12
     1  C   -0.003532  -0.004544  -0.007217   0.000581   0.000320  -0.000520
     2  C    0.012832   0.019108  -0.008923   0.008793   0.000390   0.001752
     3  C   -0.207798  -0.261830  -0.192858  -0.046886   0.021292  -0.059637
     4  N   -0.324081  -0.128837  -0.052793  -0.047443   0.001650  -0.022176
     5  C    0.265390  -0.053773  -0.417292  -0.657866   0.313101  -0.858489
     6  O   -0.088655  -0.336111   0.369518  -0.102899  -0.021492   0.001069
     7  N    7.759336   0.220428  -0.125856  -0.044522   0.021586  -0.097944
     8  C    0.220428  11.503490   0.239857  -0.365011  -1.034828  -0.673629
     9  C   -0.125856   0.239857  10.785037  -3.514731  -0.505305  -2.430500
    10  C   -0.044522  -0.365011  -3.514731  13.780037  -0.870155   0.473216
    11  C    0.021586  -1.034828  -0.505305  -0.870155   9.757032   0.392861
    12  C   -0.097944  -0.673629  -2.430500   0.473216   0.392861  14.017593
    13  C    0.100074  -1.754252   2.086656  -2.826691  -2.629652  -2.626351
    14  H    0.000007  -0.000037  -0.000004  -0.000000   0.000000  -0.000000
    15  H    0.000019   0.000023  -0.000028   0.000003   0.000000  -0.000000
    16  H    0.000013   0.000015  -0.000051   0.000007   0.000000  -0.000000
    17  H   -0.000081  -0.000797  -0.000365   0.000189   0.000012  -0.000005
    18  H    0.000162  -0.000781   0.000104   0.000041   0.000001  -0.000001
    19  H   -0.000544  -0.001029  -0.001339   0.000248  -0.000010  -0.000002
    20  H    0.000023  -0.003948   0.000443  -0.000080   0.000002  -0.000044
    21  H    0.028261   0.006671   0.003284   0.000238   0.000049   0.000047
    22  H    0.174545   0.030808   0.052935  -0.069047  -0.010773   0.006308
    23  H   -0.013291  -0.003108   0.237906   0.027192  -0.027082   0.087253
    24  H   -0.003465  -0.068543   0.016605   0.212015   0.095708   0.048205
    25  H    0.000654   0.051280   0.007937  -0.150128   0.334163   0.053737
    26  Cl   0.001681  -0.055306  -0.080236   0.081571   0.033282  -0.121010
    27  C   -0.000866  -1.049686  -0.314163  -0.122381   0.225164  -1.231436
    28  F   -0.000005   0.030311   0.053737  -0.006022   0.034957   0.027999
    29  F   -0.000047   0.011273  -0.027394   0.059967  -0.088419   0.165972
    30  F   -0.000048   0.010544  -0.026801   0.063495  -0.089941   0.166344
    31  O    0.009918  -0.000198  -0.000925   0.000355  -0.000540  -0.000075
    32  O   -0.016302  -0.118101  -0.017525   0.079142   0.042274   0.000226
    33  C   -0.010347   0.006195  -0.005730  -0.001100  -0.003809  -0.000326
    34  C   -0.011499   0.002219  -0.006000  -0.001441  -0.002953  -0.000419
    35  C    0.001771  -0.000197   0.000155   0.000107  -0.000046  -0.000028
    36  H    0.000006  -0.000604  -0.000042   0.000550   0.000169   0.000003
    37  H    0.000005  -0.000174  -0.000012   0.000183   0.000053  -0.000002
    38  H   -0.000000  -0.000006   0.000000   0.000013   0.000002   0.000000
    39  H   -0.000002   0.000009   0.000000  -0.000007  -0.000000  -0.000000
    40  H   -0.000001  -0.000043  -0.000002   0.000043   0.000005   0.000000
              13         14         15         16         17         18
     1  C   -0.001012   0.437599   0.422234   0.422492  -0.021599  -0.025117
     2  C   -0.000972  -0.111215  -0.068050  -0.068133   0.416884   0.421622
     3  C   -0.057359   0.026831  -0.011840  -0.011093  -0.078555  -0.086282
     4  N   -0.008780   0.000385   0.000472   0.000483   0.006879   0.006663
     5  C   -0.271976  -0.002420   0.001192   0.000276  -0.007788  -0.001281
     6  O    0.121865   0.000005  -0.000035  -0.000040  -0.000146  -0.000096
     7  N    0.100074   0.000007   0.000019   0.000013  -0.000081   0.000162
     8  C   -1.754252  -0.000037   0.000023   0.000015  -0.000797  -0.000781
     9  C    2.086656  -0.000004  -0.000028  -0.000051  -0.000365   0.000104
    10  C   -2.826691  -0.000000   0.000003   0.000007   0.000189   0.000041
    11  C   -2.629652   0.000000   0.000000   0.000000   0.000012   0.000001
    12  C   -2.626351  -0.000000  -0.000000  -0.000000  -0.000005  -0.000001
    13  C   14.731795  -0.000000  -0.000001  -0.000002  -0.000017   0.000004
    14  H   -0.000000   0.481879  -0.023927  -0.023901  -0.003145  -0.003139
    15  H   -0.000001  -0.023927   0.487730  -0.028547  -0.004640   0.003775
    16  H   -0.000002  -0.023901  -0.028547   0.487778   0.003782  -0.004625
    17  H   -0.000017  -0.003145  -0.004640   0.003782   0.489221  -0.031355
    18  H    0.000004  -0.003139   0.003775  -0.004625  -0.031355   0.489150
    19  H   -0.000002  -0.000054  -0.000300   0.002744   0.003798  -0.005278
    20  H   -0.000018  -0.000053   0.002781  -0.000312  -0.005262   0.003805
    21  H   -0.000039  -0.000002  -0.000000   0.000000   0.000703   0.000661
    22  H    0.008933  -0.000000  -0.000000  -0.000000   0.000002   0.000002
    23  H   -0.008485  -0.000000  -0.000000   0.000000  -0.000000  -0.000000
    24  H   -0.008015  -0.000000   0.000000   0.000000   0.000000   0.000000
    25  H    0.050680  -0.000000   0.000000   0.000000  -0.000000   0.000000
    26  Cl  -0.153654   0.000000  -0.000000  -0.000000  -0.000000   0.000000
    27  C   -0.497163  -0.000000  -0.000000  -0.000000  -0.000000  -0.000000
    28  F   -0.072555  -0.000000  -0.000000  -0.000000  -0.000000  -0.000000
    29  F   -0.079643  -0.000000  -0.000000   0.000000  -0.000000  -0.000000
    30  F   -0.080052  -0.000000   0.000000  -0.000000  -0.000000   0.000000
    31  O   -0.000015  -0.000030  -0.000001  -0.000001  -0.000515  -0.000308
    32  O   -0.001172  -0.000000   0.000000   0.000000   0.000022   0.000022
    33  C   -0.001550  -0.000038  -0.000016  -0.000008  -0.000417  -0.000549
    34  C   -0.000583   0.000018  -0.000004  -0.000002   0.000269  -0.000163
    35  C    0.000034   0.000003   0.000000  -0.000000  -0.000152  -0.000116
    36  H   -0.000004  -0.000000   0.000000   0.000000  -0.000000  -0.000000
    37  H   -0.000000  -0.000000   0.000000   0.000000  -0.000000  -0.000000
    38  H    0.000000   0.000000  -0.000000  -0.000000   0.000000   0.000000
    39  H    0.000000  -0.000000   0.000000   0.000000  -0.000000  -0.000000
    40  H   -0.000000   0.000000  -0.000000  -0.000000   0.000000   0.000000
              19         20         21         22         23         24
     1  C   -0.002948  -0.003158  -0.002281   0.000067   0.000005  -0.000002
     2  C   -0.047169  -0.045592   0.000656   0.000106   0.000067   0.000022
     3  C    0.445092   0.447902  -0.058944   0.003615   0.001783  -0.000325
     4  N   -0.050398  -0.051184   0.192297   0.026840   0.000108   0.000424
     5  C   -0.036657  -0.039188   0.027032  -0.041547   0.001926  -0.003325
     6  O    0.001966   0.002422   0.005504   0.004074  -0.001991   0.000020
     7  N   -0.000544   0.000023   0.028261   0.174545  -0.013291  -0.003465
     8  C   -0.001029  -0.003948   0.006671   0.030808  -0.003108  -0.068543
     9  C   -0.001339   0.000443   0.003284   0.052935   0.237906   0.016605
    10  C    0.000248  -0.000080   0.000238  -0.069047   0.027192   0.212015
    11  C   -0.000010   0.000002   0.000049  -0.010773  -0.027082   0.095708
    12  C   -0.000002  -0.000044   0.000047   0.006308   0.087253   0.048205
    13  C   -0.000002  -0.000018  -0.000039   0.008933  -0.008485  -0.008015
    14  H   -0.000054  -0.000053  -0.000002  -0.000000  -0.000000  -0.000000
    15  H   -0.000300   0.002781  -0.000000  -0.000000  -0.000000   0.000000
    16  H    0.002744  -0.000312   0.000000  -0.000000   0.000000   0.000000
    17  H    0.003798  -0.005262   0.000703   0.000002  -0.000000   0.000000
    18  H   -0.005278   0.003805   0.000661   0.000002  -0.000000   0.000000
    19  H    0.497668  -0.040761   0.001736   0.000004  -0.000000  -0.000000
    20  H   -0.040761   0.497938   0.001697   0.000004  -0.000000   0.000000
    21  H    0.001736   0.001697   0.262925   0.003493   0.000001   0.000004
    22  H    0.000004   0.000004   0.003493   0.255454  -0.000079   0.004504
    23  H   -0.000000  -0.000000   0.000001  -0.000079   0.411809  -0.000090
    24  H   -0.000000   0.000000   0.000004   0.004504  -0.000090   0.426785
    25  H   -0.000000  -0.000000  -0.000000  -0.000005   0.000010  -0.003309
    26  Cl   0.000000   0.000002   0.000001   0.000002  -0.000386  -0.000087
    27  C   -0.000001  -0.000001  -0.000004   0.000909   0.000331   0.014504
    28  F   -0.000000  -0.000000   0.000000   0.000000   0.000074   0.000011
    29  F    0.000000  -0.000000  -0.000000   0.000000   0.000007   0.000018
    30  F   -0.000000   0.000000  -0.000000   0.000000   0.000006   0.000019
    31  O   -0.000003   0.000022   0.035866   0.000194   0.000000  -0.000001
    32  O   -0.000003  -0.000002   0.003035   0.046422   0.000005  -0.001019
    33  C    0.000323   0.000205  -0.006609  -0.003715  -0.000014  -0.000823
    34  C    0.000071   0.000037   0.001404   0.003921  -0.000002   0.000349
    35  C   -0.000004  -0.000000  -0.000203  -0.000308  -0.000000  -0.000054
    36  H   -0.000000   0.000000  -0.000005  -0.000001   0.000000   0.000000
    37  H    0.000000  -0.000000  -0.000005  -0.000001  -0.000000  -0.000000
    38  H    0.000000  -0.000000  -0.000000   0.000000  -0.000000   0.000000
    39  H    0.000000   0.000000   0.000000   0.000000  -0.000000   0.000000
    40  H   -0.000000   0.000000  -0.000001   0.000000   0.000000   0.000000
              25         26         27         28         29         30
     1  C    0.000000   0.000012  -0.000017  -0.000000  -0.000000  -0.000000
     2  C    0.000000  -0.000080   0.000042   0.000000  -0.000000   0.000000
     3  C    0.000039   0.001526  -0.003053   0.000000  -0.000002  -0.000003
     4  N    0.000014   0.000995   0.000294   0.000000  -0.000000  -0.000000
     5  C    0.005463   0.009086  -0.116342   0.000216  -0.000371  -0.000468
     6  O   -0.000000  -0.002241   0.001670   0.000003  -0.000000   0.000000
     7  N    0.000654   0.001681  -0.000866  -0.000005  -0.000047  -0.000048
     8  C    0.051280  -0.055306  -1.049686   0.030311   0.011273   0.010544
     9  C    0.007937  -0.080236  -0.314163   0.053737  -0.027394  -0.026801
    10  C   -0.150128   0.081571  -0.122381  -0.006022   0.059967   0.063495
    11  C    0.334163   0.033282   0.225164   0.034957  -0.088419  -0.089941
    12  C    0.053737  -0.121010  -1.231436   0.027999   0.165972   0.166344
    13  C    0.050680  -0.153654  -0.497163  -0.072555  -0.079643  -0.080052
    14  H   -0.000000   0.000000  -0.000000  -0.000000  -0.000000  -0.000000
    15  H    0.000000  -0.000000  -0.000000  -0.000000  -0.000000   0.000000
    16  H    0.000000  -0.000000  -0.000000  -0.000000   0.000000  -0.000000
    17  H   -0.000000  -0.000000  -0.000000  -0.000000  -0.000000  -0.000000
    18  H    0.000000   0.000000  -0.000000  -0.000000  -0.000000   0.000000
    19  H   -0.000000   0.000000  -0.000001  -0.000000   0.000000  -0.000000
    20  H   -0.000000   0.000002  -0.000001  -0.000000  -0.000000   0.000000
    21  H   -0.000000   0.000001  -0.000004   0.000000  -0.000000  -0.000000
    22  H   -0.000005   0.000002   0.000909   0.000000   0.000000   0.000000
    23  H    0.000010  -0.000386   0.000331   0.000074   0.000007   0.000006
    24  H   -0.003309  -0.000087   0.014504   0.000011   0.000018   0.000019
    25  H    0.409032   0.000142  -0.049608   0.000355   0.000265   0.000305
    26  Cl   0.000142  17.025182   0.019661  -0.026604   0.004880   0.004795
    27  C   -0.049608   0.019661   7.481880   0.043649   0.076997   0.075556
    28  F    0.000355  -0.026604   0.043649   9.315996  -0.037063  -0.037085
    29  F    0.000265   0.004880   0.076997  -0.037063   9.243275  -0.048928
    30  F    0.000305   0.004795   0.075556  -0.037085  -0.048928   9.243002
    31  O    0.000000   0.000001  -0.000019  -0.000000  -0.000000  -0.000000
    32  O   -0.000006   0.000020  -0.000104  -0.000000   0.000000   0.000000
    33  C   -0.000019  -0.000030  -0.000193   0.000000   0.000001   0.000001
    34  C    0.000004  -0.000008   0.000029   0.000000  -0.000000  -0.000000
    35  C    0.000000   0.000000  -0.000002  -0.000000  -0.000000  -0.000000
    36  H   -0.000000   0.000000   0.000000  -0.000000   0.000000   0.000000
    37  H   -0.000000   0.000000  -0.000000  -0.000000   0.000000   0.000000
    38  H   -0.000000   0.000000   0.000000  -0.000000   0.000000   0.000000
    39  H   -0.000000   0.000000  -0.000000  -0.000000   0.000000   0.000000
    40  H   -0.000000   0.000000   0.000000  -0.000000   0.000000   0.000000
              31         32         33         34         35         36
     1  C    0.002381   0.000087  -0.002101   0.001525   0.000001   0.000000
     2  C    0.005827  -0.002518  -0.007160  -0.000166   0.000325   0.000002
     3  C   -0.011031   0.015683   0.006662   0.013489  -0.002599   0.000014
     4  N   -0.013204   0.010035  -0.009965  -0.008781   0.002235   0.000028
     5  C    0.001700   0.001863  -0.005510  -0.015994   0.000904  -0.000070
     6  O    0.000019  -0.000453  -0.000548  -0.000322   0.000041  -0.000000
     7  N    0.009918  -0.016302  -0.010347  -0.011499   0.001771   0.000006
     8  C   -0.000198  -0.118101   0.006195   0.002219  -0.000197  -0.000604
     9  C   -0.000925  -0.017525  -0.005730  -0.006000   0.000155  -0.000042
    10  C    0.000355   0.079142  -0.001100  -0.001441   0.000107   0.000550
    11  C   -0.000540   0.042274  -0.003809  -0.002953  -0.000046   0.000169
    12  C   -0.000075   0.000226  -0.000326  -0.000419  -0.000028   0.000003
    13  C   -0.000015  -0.001172  -0.001550  -0.000583   0.000034  -0.000004
    14  H   -0.000030  -0.000000  -0.000038   0.000018   0.000003  -0.000000
    15  H   -0.000001   0.000000  -0.000016  -0.000004   0.000000   0.000000
    16  H   -0.000001   0.000000  -0.000008  -0.000002  -0.000000   0.000000
    17  H   -0.000515   0.000022  -0.000417   0.000269  -0.000152  -0.000000
    18  H   -0.000308   0.000022  -0.000549  -0.000163  -0.000116  -0.000000
    19  H   -0.000003  -0.000003   0.000323   0.000071  -0.000004  -0.000000
    20  H    0.000022  -0.000002   0.000205   0.000037  -0.000000   0.000000
    21  H    0.035866   0.003035  -0.006609   0.001404  -0.000203  -0.000005
    22  H    0.000194   0.046422  -0.003715   0.003921  -0.000308  -0.000001
    23  H    0.000000   0.000005  -0.000014  -0.000002  -0.000000   0.000000
    24  H   -0.000001  -0.001019  -0.000823   0.000349  -0.000054   0.000000
    25  H    0.000000  -0.000006  -0.000019   0.000004   0.000000  -0.000000
    26  Cl   0.000001   0.000020  -0.000030  -0.000008   0.000000   0.000000
    27  C   -0.000019  -0.000104  -0.000193   0.000029  -0.000002   0.000000
    28  F   -0.000000  -0.000000   0.000000   0.000000  -0.000000  -0.000000
    29  F   -0.000000   0.000000   0.000001  -0.000000  -0.000000   0.000000
    30  F   -0.000000   0.000000   0.000001  -0.000000  -0.000000   0.000000
    31  O    8.599326  -0.175638   0.322095  -0.114051   0.031823   0.001736
    32  O   -0.175638   8.815970   0.368661  -0.204209   0.024327  -0.000366
    33  C    0.322095   0.368661   5.211710  -0.369666  -0.085093  -0.062246
    34  C   -0.114051  -0.204209  -0.369666   6.614954  -0.062722   0.418480
    35  C    0.031823   0.024327  -0.085093  -0.062722   5.687067  -0.042686
    36  H    0.001736  -0.000366  -0.062246   0.418480  -0.042686   0.459101
    37  H    0.001883  -0.000832  -0.057451   0.413926  -0.042563  -0.021712
    38  H   -0.000653  -0.000019  -0.010666  -0.050568   0.408383  -0.003910
    39  H    0.001028  -0.000286   0.029348  -0.074298   0.391166  -0.002319
    40  H   -0.000778   0.000065  -0.009662  -0.051436   0.408308   0.003421
              37         38         39         40
     1  C    0.000001  -0.000001  -0.000001  -0.000020
     2  C    0.000015  -0.000050   0.000006  -0.000078
     3  C    0.000002  -0.000056  -0.000002  -0.000045
     4  N    0.000023   0.000012   0.000002   0.000022
     5  C   -0.000109  -0.000011   0.000011   0.000001
     6  O   -0.000000   0.000000   0.000000  -0.000000
     7  N    0.000005  -0.000000  -0.000002  -0.000001
     8  C   -0.000174  -0.000006   0.000009  -0.000043
     9  C   -0.000012   0.000000   0.000000  -0.000002
    10  C    0.000183   0.000013  -0.000007   0.000043
    11  C    0.000053   0.000002  -0.000000   0.000005
    12  C   -0.000002   0.000000  -0.000000   0.000000
    13  C   -0.000000   0.000000   0.000000  -0.000000
    14  H   -0.000000   0.000000  -0.000000   0.000000
    15  H    0.000000  -0.000000   0.000000  -0.000000
    16  H    0.000000  -0.000000   0.000000  -0.000000
    17  H   -0.000000   0.000000  -0.000000   0.000000
    18  H   -0.000000   0.000000  -0.000000   0.000000
    19  H    0.000000   0.000000   0.000000  -0.000000
    20  H   -0.000000  -0.000000   0.000000   0.000000
    21  H   -0.000005  -0.000000   0.000000  -0.000001
    22  H   -0.000001   0.000000   0.000000   0.000000
    23  H   -0.000000  -0.000000  -0.000000   0.000000
    24  H   -0.000000   0.000000   0.000000   0.000000
    25  H   -0.000000  -0.000000  -0.000000  -0.000000
    26  Cl   0.000000   0.000000   0.000000   0.000000
    27  C   -0.000000   0.000000  -0.000000   0.000000
    28  F   -0.000000  -0.000000  -0.000000  -0.000000
    29  F    0.000000   0.000000   0.000000   0.000000
    30  F    0.000000   0.000000   0.000000   0.000000
    31  O    0.001883  -0.000653   0.001028  -0.000778
    32  O   -0.000832  -0.000019  -0.000286   0.000065
    33  C   -0.057451  -0.010666   0.029348  -0.009662
    34  C    0.413926  -0.050568  -0.074298  -0.051436
    35  C   -0.042563   0.408383   0.391166   0.408308
    36  H   -0.021712  -0.003910  -0.002319   0.003421
    37  H    0.459154   0.003420  -0.002316  -0.003904
    38  H    0.003420   0.485370  -0.024739  -0.026903
    39  H   -0.002316  -0.024739   0.489144  -0.024749
    40  H   -0.003904  -0.026903  -0.024749   0.485433
 Mulliken charges:
               1
     1  C   -0.832554
     2  C   -0.314035
     3  C   -0.187655
     4  N   -0.724929
     5  C    0.737672
     6  O   -0.736306
     7  N   -0.647827
     8  C   -0.216858
     9  C   -0.118083
    10  C    0.038423
    11  C    0.010932
    12  C   -1.319990
    13  C   -0.020025
    14  H    0.221237
    15  H    0.219160
    16  H    0.219125
    17  H    0.233079
    18  H    0.233079
    19  H    0.232854
    20  H    0.232321
    21  H    0.492527
    22  H    0.502335
    23  H    0.286045
    24  H    0.269863
    25  H    0.288997
    26  Cl   0.256804
    27  C    1.444354
    28  F   -0.327973
    29  F   -0.280789
    30  F   -0.280740
    31  O   -0.696191
    32  O   -0.869306
    33  C    0.710159
    34  C   -0.495411
    35  C   -0.719876
    36  H    0.250453
    37  H    0.250416
    38  H    0.220380
    39  H    0.218005
    40  H    0.220324
 Sum of Mulliken charges =  -1.00000
 Mulliken charges with hydrogens summed into heavy atoms:
               1
     1  C   -0.173031
     2  C    0.152124
     3  C    0.277520
     4  N   -0.232401
     5  C    0.737672
     6  O   -0.736306
     7  N   -0.145492
     8  C   -0.216858
     9  C    0.167963
    10  C    0.308286
    11  C    0.299929
    12  C   -1.319990
    13  C   -0.020025
    26  Cl   0.256804
    27  C    1.444354
    28  F   -0.327973
    29  F   -0.280789
    30  F   -0.280740
    31  O   -0.696191
    32  O   -0.869306
    33  C    0.710159
    34  C    0.005459
    35  C   -0.061167
 Electronic spatial extent (au):  <R**2>=          14008.7575
 Charge=             -1.0000 electrons
 Dipole moment (field-independent basis, Debye):
[...]
 00001568,0.00000494,-0.00000077,0.00002433,-0.00000761,0.00001954,0.00
 006534,0.00000487,-0.00003211,-0.00000114,-0.00000294,0.00000913,0.000
 00552,0.00000247,0.00000792,-0.00000309,-0.00000038,-0.00000297,-0.000
 00117,0.00000064,0.00000550,0.00000115,0.00000020,-0.00000374,-0.00000
 043,-0.00000060,-0.00000080,-0.00000005,-0.00000002,-0.00000036,0.0000
 0020,-0.00000036,-0.00000043,0.00000055,0.00000043,0.00000036,-0.00000
 039,0.00000086,-0.00000049,0.00000063,-0.00000084,-0.00000203,0.000001
 96,0.00000057,-0.00000184,0.00000117,-0.00000067,-0.00000601,-0.000052
 33,-0.00002044,-0.00001501,-0.00010869,-0.00001476,-0.00000035,-0.0000
 0066,0.00000012,0.00000011,0.00000310,-0.00000044,0.00000142,0.0000000
 7,0.00000003,0.00000086,0.00000118,0.00000003,-0.00000552,-0.00000004,
 0.00000058,0.00000128,0.00000071,-0.00000062,0.00000171,-0.00000109,-0
 .00000033,0.00000127,0.00000049,0.00000024,-0.00022051,-0.00062502,-0.
 00107019,0.00083733,0.00122263,0.00004086,0.00271173,-0.00334646,0.001
 21370,-0.10800045,0.04669858,-0.11222055,0.01151416,-0.00485433,0.0067
 8333,0.11642879,-0.05067581,0.11985051,-0.00000047,-0.00000031,-0.0000
 0125,0.00000017,-0.00000068,0.00000571,0.00000761,0.00000247,-0.000001
 11,0.00001164,0.00005618,-0.00002378,-0.00006604,0.00001264,-0.0000077
 9,0.00001869,-0.00001134,0.00000318,0.00000011,-0.00007569,0.00001428,
 0.00003531,-0.00000149,0.00000230,-0.00001004,-0.00000522,-0.00000159,
 -0.00000730,0.00000488,0.00000364,0.00000306,0.00000102,-0.00000019,-0
 .00000510,-0.00000139,-0.00000183,0.00000472,0.00000084,0.00000093,-0.
 00000004,0.00000030,0.00000036,0.00000004,0.00000037,-0.00000016,0.000
 00062,-0.00000070,-0.00000016,0.00000039,-0.00000266,-0.00000198,-0.00
 000188,0.00000048,-0.00000067,-0.00000117,-0.00000018,-0.00000047,-0.0
 0000175,0.00000166,-0.00000044,-0.00001007,-0.00004965,0.00003501,0.00
 001131,0.00018091,-0.00002177,0.00000024,0.00000027,0.00000009,0.00000
 192,-0.00000010,-0.00000193,-0.00000069,-0.00000033,-0.00000007,-0.000
 00115,-0.00000204,-0.00000023,0.00000632,0.00000089,0.00000014,-0.0000
 0152,-0.00000101,0.00000086,-0.00000180,0.00000104,0.00000025,-0.00000
 161,-0.00000071,-0.00000089,0.00029406,0.00114771,-0.00053449,-0.00059
 948,-0.00216057,-0.00005768,-0.00206191,0.00285053,0.00171054,-0.04922
 161,0.00714218,0.03416255,-0.00394573,0.00722451,0.02741228,0.00332817
 ,-0.00799726,-0.02480559,0.05431686,-0.00000518,0.00000282,0.00000205,
 0.00001264,-0.00001097,-0.00000731,-0.00009908,0.00000326,0.00000401,-
 0.00011715,-0.00047761,0.00011786,0.00028829,0.00010419,-0.00000687,-0
 .00007238,-0.00014711,0.00003048,-0.00009157,0.00002561,-0.00003912,0.
 00004910,0.00002430,-0.00000472,-0.00001213,-0.00001267,0.00000193,-0.
 00001683,-0.00000568,0.00000687,0.00000600,0.00000455,-0.00000216,-0.0
 0001042,-0.00000371,0.00000342,0.00000656,0.00000445,-0.00000024,0.000
 00523,-0.00000053,0.00000003,0.00000285,-0.00000304,0.00000217,0.00000
 149,-0.00000205,-0.00000060,0.00000132,0.00000390,-0.00000630,0.000004
 74,0.00000112,0.00001101,0.00001837,-0.00001528,-0.00000046,0.00002079
 ,-0.00001698,0.00000853,0.00003466,0.00077278,-0.00021056,0.00006461,0
 .00004164,0.00005675,0.00000065,0.00000227,-0.00000031,-0.00000085,0.0
 0000343,-0.00000240,-0.00000111,0.00000060,-0.00000001,-0.00000090,-0.
 00000280,-0.00000072,0.00001095,0.00000383,-0.00000203,-0.00000307,-0.
 00000273,0.00000196,-0.00000257,0.00000100,0.00000034,-0.00000288,-0.0
 0000174,-0.00000135,0.00331211,-0.00723776,0.00242262,0.00111097,0.000
 45674,0.00325002,0.00174284,-0.00636401,-0.03537885,0.00632776,-0.0656
 6623,-0.07112095,-0.00203636,0.00345828,0.01520671,-0.00181572,0.00337
 500,0.01145682,-0.00684856,0.07158928,-0.00000179,0.00000086,-0.000000
 10,0.00000210,-0.00000338,-0.00000241,-0.00001961,-0.00000468,0.000001
 16,-0.00001590,-0.00007494,0.00002435,0.00007461,0.00001790,-0.0000047
 1,-0.00001741,-0.00002746,0.00000642,-0.00002231,-0.00000647,-0.000013
 49,0.00000863,0.00000565,-0.00000244,-0.00000269,-0.00000236,0.0000020
 1,-0.00000401,-0.00000441,0.00000552,0.00000046,0.00000103,-0.00000227
 ,-0.00000205,-0.00000071,0.00000137,0.00000081,0.00000022,-0.00000110,
 0.00000111,0.00000019,-0.00000023,0.00000096,-0.00000118,0.00000122,0.
 00000054,-0.00000051,-0.00000006,0.00000167,0.00000038,-0.00000261,0.0
 0000057,0.00000161,0.00000433,0.00000403,-0.00000341,0.00000058,0.0000
 0473,-0.00000433,0.00000199,-0.00001295,0.00010704,-0.00004768,0.00000
 646,-0.00003757,0.00003231,0.00000037,0.00000071,-0.00000040,-0.000001
 71,0.00000007,-0.00000104,-0.00000095,0.00000026,-0.00000047,0.0000000
 2,0.00000039,0.00000010,0.00000137,-0.00000019,-0.00000196,-0.00000041
 ,-0.00000031,0.00000053,-0.00000062,0.00000043,0.00000047,-0.00000010,
 0.00000018,0.00000080,-0.00069800,-0.00110319,0.00001845,-0.00008316,0
 .00077541,0.00148136,0.00149716,0.00156534,-0.00172833,0.03320958,-0.0
 6958425,-0.29232820,0.00117471,-0.00193939,-0.00945171,0.00185229,-0.0
 0473046,-0.01574943,-0.03895567,0.07382629,0.31605001,-0.00000053,0.00
 000008,0.00000089,0.00000076,-0.00000273,-0.00000377,-0.00000389,0.000
 00069,0.00000105,-0.00000037,-0.00001697,0.00000495,-0.00000311,0.0000
 0906,-0.00000149,0.00000145,-0.00001280,0.00000215,-0.00000929,-0.0000
 4097,-0.00000006,0.00001585,-0.00000003,-0.00000006,-0.00000440,-0.000
 00329,0.00000025,-0.00000396,0.00000320,-0.00000138,0.00000127,0.00000
 080,0.00000010,-0.00000267,-0.00000126,0.00000037,0.00000161,0.0000006
 4,-0.00000082,0.00000025,0.00000014,-0.00000036,0.00000028,-0.00000046
 ,0.00000051,0.00000040,-0.00000009,-0.00000024,0.00000002,-0.00000165,
 -0.00000081,0.00000088,-0.00000038,0.00000229,0.00000106,-0.00000079,-
 0.00000029,0.00000096,-0.00000071,0.00000055,-0.00000218,0.00002266,-0
 .00000976,0.00001012,0.00006764,-0.00000339,0.00000005,0.00000015,0.00
 000028,0.00000058,-0.00000053,0.00000130,-0.00000017,0.,0.00000036,-0.
 00000047,-0.00000125,-0.00000008,0.00000305,0.00000084,0.00000131,-0.0
 0000075,-0.00000044,-0.00000004,-0.00000072,0.00000022,-0.00000029,-0.
 00000095,-0.00000062,-0.00000102,0.00037318,-0.00042094,-0.00040079,-0
 .00011354,-0.00036490,-0.00025875,0.00051923,0.00150350,0.00004626,-0.
 00365868,0.00721240,0.02862793,-0.05169080,0.00800792,0.02969192,0.001
 23864,0.00080756,-0.00049586,-0.00436432,-0.00311803,0.00208846,0.0550
 3599,0.00000054,0.00000031,-0.00000133,0.00000076,0.00000277,0.0000037
 0,0.00000487,-0.00000063,0.00000042,0.00000712,0.00002191,-0.00000842,
 -0.00001593,-0.00000730,0.00000020,0.00000329,0.00000975,-0.00000279,0
 .00000686,0.00000611,0.00000565,-0.00000693,-0.00000194,-0.00000133,0.
 00000181,0.00000141,0.00000027,0.00000184,-0.00000073,0.00000309,-0.00
 000108,-0.00000020,-0.00000285,0.00000161,0.00000040,0.00000202,-0.000
 00134,-0.00000044,-0.00000225,-0.00000019,-0.00000008,0.00000025,-0.00
 000051,0.00000031,-0.00000059,-0.00000029,0.00000007,0.00000046,-0.000
 00052,0.00000106,-0.00000029,0.00000023,0.00000096,-0.00000147,-0.0000
 0119,0.00000175,0.00000037,-0.00000011,0.00000232,-0.00000120,-0.00000
 024,-0.00004427,0.00001742,-0.00000187,-0.00001432,-0.00000812,-0.0000
 0025,-0.00000022,0.00000018,0.00000075,0.00000029,0.00000002,0.0000001
 9,0.00000006,0.00000006,0.00000033,0.00000052,0.00000023,-0.00000215,-
 0.00000044,0.00000047,0.00000055,0.00000043,-0.00000041,0.00000061,-0.
 00000026,-0.00000011,0.00000055,0.00000027,0.00000010,-0.00041743,-0.0
 0024547,0.00038583,-0.00004699,0.00012986,-0.00022856,0.00075459,0.000
 01107,0.00035206,-0.00135439,0.00318859,0.01447323,0.00832281,-0.06291
 738,-0.06322961,0.00060604,0.00038970,-0.00048457,-0.00247197,-0.00077
 310,0.00110692,-0.00668729,0.06424948,0.00000187,0.00000124,0.00000075
 ,-0.00000310,0.00000095,-0.00000572,0.00000155,-0.00000267,-0.00000015
 ,-0.00000165,-0.00000605,0.00001181,0.00002483,-0.00000360,0.00000026,
 -0.00000662,0.00000615,-0.00000153,0.00000099,0.00004916,0.00000403,-0
 .00001246,0.00000228,-0.00000057,0.00000365,0.00000246,0.00000024,0.00
 000222,-0.00000380,-0.00000019,-0.00000116,-0.00000051,0.00000044,0.00
 000173,0.00000117,0.00000053,-0.00000074,-0.00000084,0.00000085,-0.000
 00150,-0.00000084,-0.00000056,0.00000026,-0.00000076,0.00000063,-0.000
 00061,0.00000111,0.00000048,-0.00000023,-0.00000044,0.00000140,-0.0000
 0043,0.00000011,0.00000313,-0.00000068,0.00000093,0.00000023,-0.000000
 44,-0.00000200,0.00000048,-0.00000915,0.00001495,-0.00000560,-0.000007
 17,-0.00007472,-0.00000511,0.00000007,0.00000009,-0.00000056,-0.000000
 24,0.00000050,-0.00000163,0.00000020,-0.00000022,-0.00000040,0.0000004
 7,0.00000138,-0.00000003,-0.00000183,-0.00000099,-0.00000210,0.0000004
 2,0.00000032,0.00000030,0.00000025,0.00000017,0.00000040,0.00000078,0.
 00000071,0.00000116,-0.00109265,-0.00030731,0.00095229,-0.00010344,0.0
 0069401,0.00014453,0.00087291,-0.00183545,-0.00049627,0.00110436,-0.00
 203599,-0.01040136,0.03092127,-0.06145224,-0.30285463,0.00010896,0.000
 06115,0.00077699,0.00232820,0.00113072,0.00066445,-0.03592064,0.068358
 89,0.32648818,0.00000011,0.00000128,-0.00000030,0.00000359,-0.00000692
 ,0.00000113,-0.00002264,0.00000719,-0.00000259,0.00001017,-0.00004731,
 0.00001675,-0.00006992,0.00004686,-0.00001891,0.00002176,-0.00006785,0
 .00001794,-0.00002776,-0.00026107,-0.00001675,0.00009085,-0.00000240,-
 0.00000167,-0.00002636,-0.00001626,0.00000040,-0.00002028,0.00001427,0
 .00000401,0.00000652,0.00000441,-0.00000154,-0.00001393,-0.00000613,0.
 00000060,0.00000941,0.00000341,-0.00000121,0.00000216,-0.00000013,0.00
 000012,0.00000019,-0.00000008,0.00000008,0.00000011,-0.00000008,-0.000
 00006,-0.00000003,-0.00000192,0.00000076,0.00000015,-0.00000111,-0.000
 00078,0.00000526,-0.00000318,-0.00000032,0.00000542,-0.00000292,0.0000
 0137,-0.00001439,0.00010735,-0.00002331,0.00004621,0.00041212,0.000043
 23,0.00000048,0.00000124,0.00000015,-0.00000067,-0.00000396,-0.0000014
 8,-0.00000133,-0.00000034,0.00000018,-0.00000281,-0.00000702,-0.000000
 83,0.00001663,0.00000492,0.00000050,-0.00000445,-0.00000342,0.00000214
 ,-0.00000417,0.00000119,0.00000018,-0.00000455,-0.00000281,-0.00000284
 ,0.00116649,-0.00021709,-0.00043998,-0.00144258,-0.00358364,0.00066364
 ,-0.00453389,0.00255861,0.00255354,0.00160450,-0.03051693,-0.00301277,
 -0.04851083,0.01571639,0.00052637,0.00113390,0.00061933,-0.00070677,0.
 00112062,0.00080206,-0.00019350,-0.00128924,0.00329763,-0.00032030,0.0
 5118532,-0.00000184,0.00000151,-0.00000022,0.00000226,-0.00000669,0.00
 000060,-0.00002846,0.00000520,-0.00000020,-0.00000231,-0.00009366,0.00
 004059,-0.00000923,0.00005921,-0.00001663,0.00000619,-0.00007587,0.000
 01612,-0.00003604,-0.00017865,-0.00001167,0.00007728,0.00000121,-0.000
 00231,-0.00002187,-0.00001458,-0.00000007,-0.00001794,0.00001118,0.000
 00422,0.00000702,0.00000444,-0.00000185,-0.00001322,-0.00000558,0.0000
 0098,0.00000830,0.00000376,-0.00000053,0.00000225,0.00000073,-0.000000
 16,0.00000128,-0.00000128,0.00000142,0.00000117,-0.00000135,-0.0000006
 5,-0.00000108,0.00000175,-0.00000311,0.00000057,0.00000079,0.00000343,
 0.00000556,-0.00000527,-0.00000091,0.00000668,-0.00000551,0.00000263,-
 0.00002723,0.00020177,-0.00006130,0.00004758,0.00032193,0.00002735,0.0
 0000065,0.00000120,0.,0.00000012,-0.00000236,-0.00000136,-0.00000138,0
 .00000010,0.00000014,-0.00000244,-0.00000614,-0.00000069,0.00001604,0.
 00000481,-0.00000009,-0.00000435,-0.00000337,0.00000216,-0.00000402,0.
 00000110,0.00000030,-0.00000439,-0.00000271,-0.00000247,-0.00036003,-0
 .00107247,0.00011536,-0.00131201,-0.00225090,0.00060161,-0.00121193,0.
 00295671,0.00055465,0.00227164,-0.01204173,-0.00166169,0.01409901,-0.3
 1883081,-0.02135749,-0.00008150,0.00051695,-0.00033104,0.00023532,0.00
 049476,0.00029511,0.00050501,-0.00603265,-0.00050161,-0.01461113,0.344
 78358,-0.00000015,-0.00000118,0.00000050,-0.00000129,0.00000078,-0.000
 00183,0.00000787,-0.00000322,-0.00000052,-0.00000401,0.00001836,-0.000
 00149,0.00003170,-0.00001775,0.00000781,-0.00000956,0.00002660,-0.0000
 0702,0.00000982,0.00011134,0.00000833,-0.00003675,0.00000167,-0.000000
 62,0.00001074,0.00000673,0.00000110,0.00000821,-0.00000634,0.00000026,
 -0.00000286,-0.00000163,-0.00000022,0.00000567,0.00000249,-0.00000034,
 -0.00000365,-0.00000137,-0.00000026,-0.00000032,0.00000008,-0.00000011
 ,-0.00000003,0.00000014,0.,-0.00000035,0.00000045,0.00000006,0.0000006
 5,-0.00000219,0.00000109,-0.00000040,-0.00000062,-0.00000015,-0.000001
 50,0.00000133,0.00000040,-0.00000207,0.00000073,-0.00000042,0.00000153
 ,-0.00003428,0.00000249,-0.00001712,-0.00017467,-0.00001623,-0.0000001
 4,-0.00000048,-0.00000005,0.00000036,0.00000118,0.00000127,0.00000052,
 0.00000013,-0.00000001,0.00000115,0.00000290,0.00000026,-0.00000644,-0
 .00000214,0.00000022,0.00000176,0.00000147,-0.00000099,0.00000157,-0.0
 0000040,-0.00000012,0.00000177,0.00000113,0.00000104,-0.00051219,-0.00
 002020,0.00045383,0.00061669,0.00154953,-0.00020292,0.00249076,-0.0011
 5184,-0.00036703,-0.00107661,0.01362744,0.00014973,0.00039593,-0.02208
 660,-0.05054186,-0.00023795,-0.00052250,0.00023505,-0.00072400,-0.0000
 9873,0.00030755,0.00167933,-0.03170720,-0.00056855,-0.00287950,0.02318
 385,0.04927883,-0.00000241,-0.00000112,0.00000199,-0.00000150,-0.00000
 766,-0.00000249,-0.00000554,0.00000079,-0.00000148,0.00000385,-0.00001
 204,0.00000479,-0.00002449,0.00000999,-0.00000543,0.00000534,-0.000014
 84,0.00000465,-0.00000553,-0.00005886,0.00000002,0.00001589,-0.0000027
 8,0.00000028,-0.00000509,-0.00000359,0.00000050,-0.00000280,0.00000384
 ,0.00000060,0.00000170,0.00000054,0.00000025,-0.00000255,-0.00000162,-
 0.00000001,0.00000134,0.00000138,-0.00000025,0.00000291,0.00000085,-0.
 00000045,0.00000009,-0.00000022,0.00000061,0.00000018,0.00000077,-0.00
 000006,0.00000204,-0.00001864,-0.00000112,0.00000012,-0.00000589,-0.00
 000042,0.00000151,0.00000002,0.00000060,0.00000244,-0.00000069,0.00000
 025,-0.00000241,0.00002333,-0.00001176,0.00001786,0.00008653,0.0000076
 7,-0.00000001,0.00000013,-0.00000039,-0.00000067,-0.00000062,-0.000000
 80,-0.00000006,0.00000022,-0.00000026,-0.00000068,-0.00000225,-0.00000
 020,0.00000330,0.00000228,-0.00000114,-0.00000113,-0.00000136,0.000001
 15,-0.00000057,-0.00000035,0.00000029,-0.00000095,-0.00000081,-0.00000
 027,0.00132405,-0.00029058,-0.00024898,0.00013529,-0.00072374,0.000130
 38,-0.00029689,0.00240808,0.00022231,-0.02239313,0.00842568,-0.0143483
 3,-0.22196178,0.06902757,-0.11110262,-0.00387784,-0.00298396,0.0027482
 5,0.00114183,0.00043081,0.00010220,0.00394442,-0.00200234,0.00211005,-
 0.00044001,0.00045847,0.00025084,0.24242190,0.00000355,0.00000360,0.00
 000242,0.00000242,-0.00000317,-0.00001177,-0.00000045,-0.00000100,0.00
 000145,0.00001060,0.00002707,-0.00001028,-0.00001646,-0.00001006,0.000
 00146,0.00000312,0.00001290,-0.00000192,0.00000750,0.00001500,0.000000
 41,-0.00000947,-0.00000268,-0.00000068,0.00000252,0.00000194,0.0000002
 6,0.00000286,-0.00000111,0.00000079,-0.00000093,-0.00000039,-0.0000014
 9,0.00000178,0.00000058,0.00000040,-0.00000142,-0.00000063,-0.00000011
 ,-0.00000038,-0.00000088,0.00000009,-0.00000104,0.00000081,-0.00000098
 ,-0.00000191,0.00000156,0.00000045,-0.00000083,0.00001703,0.00001308,-
 0.00000060,0.00000455,-0.00000669,0.00000065,0.00000303,0.00000052,0.0
 0000010,0.00000196,-0.00000101,0.00000503,-0.00004006,0.00002071,0.000
 00093,-0.00002304,0.00000005,-0.00000020,-0.00000022,-0.00000009,-0.00
 000019,0.00000023,0.00000016,0.00000022,0.00000004,-0.00000009,0.00000
 019,0.00000054,0.00000005,-0.00000216,-0.00000067,0.00000015,0.0000005
 5,0.00000042,-0.00000023,0.00000059,-0.00000026,0.00000005,0.00000058,
 0.00000030,0.00000031,-0.00062346,-0.00014932,0.00000161,0.00010629,0.
 00014620,0.00024221,0.00012480,0.00006738,-0.00093025,-0.01198988,0.00
 441464,-0.00809194,0.07067924,-0.07514668,0.04428302,-0.00262357,-0.00
 076827,0.00098908,0.00076765,0.00037019,-0.00017679,-0.00746636,0.0020
 2005,-0.00409840,0.02576545,-0.00874108,0.01729500,-0.07474730,0.07777
 950,-0.00000182,-0.00000228,-0.00000198,0.00000011,0.00000055,0.000008
 40,0.00000132,0.00000076,-0.00000131,0.00000488,0.00001703,-0.00000860
 ,-0.00001845,-0.00000632,-0.00000032,0.00000413,0.00000654,-0.00000076
 ,0.00000767,-0.00000538,-0.00000146,-0.00000236,-0.00000106,0.00000019
 ,0.00000060,0.00000051,0.00000069,0.00000095,0.00000011,0.00000140,-0.
 00000016,-0.00000031,0.00000051,0.00000069,0.00000025,-0.00000111,-0.0
 0000040,0.00000019,-0.00000046,0.00000244,0.00000067,0.00000041,-0.000
 00046,0.00000110,-0.00000045,0.00000039,0.00000040,0.00000016,0.000000
 91,-0.00001424,-0.00000037,-0.00000097,-0.00000222,-0.00000543,-0.0000
 0035,0.00000102,0.00000015,0.00000019,0.00000163,-0.00000058,0.0000037
 6,-0.00003723,0.00001179,-0.00000439,0.00000370,0.00000222,-0.00000013
 ,-0.00000014,0.00000008,-0.00000009,-0.00000020,-0.00000011,0.,0.00000
 008,0.00000001,0.00000009,-0.00000010,0.00000010,-0.00000075,0.0000001
 2,0.00000016,0.00000016,0.,-0.00000007,0.00000025,-0.00000025,-0.00000
 002,0.00000019,0.,0.00000005,0.00045792,0.00040759,-0.00003087,0.00001
 492,-0.00017441,-0.00020845,-0.00078150,-0.00002898,0.00054419,0.01161
 573,-0.00490519,0.00704287,-0.11219897,0.04338651,-0.11977426,0.002549
 33,0.00145260,0.00016319,-0.00053658,-0.00065690,0.00073365,-0.0250503
 4,0.01096926,-0.01470861,0.00379232,-0.00089446,0.00126092,0.12013878,
 -0.04952099,0.12497405\\-0.00000019,-0.00000325,-0.00000206,-0.0000006
 0,-0.00000216,-0.00000167,-0.00000040,-0.00000182,-0.00000079,-0.00000
 308,-0.00000299,-0.00000383,0.00000655,-0.00000758,0.00000192,-0.00000
 186,0.00000625,-0.00000436,-0.00000529,0.00000143,-0.00000397,0.000002
 20,0.00000215,0.00000161,-0.00000304,0.00000017,-0.00000123,-0.0000000
 9,0.00000211,-0.00000053,-0.00000089,0.00000214,0.00000145,-0.00000303
 ,0.00000304,-0.00000498,0.00000145,0.00000121,0.00000211,0.00000014,-0
 .00000305,-0.00000188,-0.00000047,-0.00000368,-0.00000215,-0.00000098,
 -0.00000277,-0.00000283,0.00000055,-0.00000234,-0.00000048,0.00000008,
 -0.00000149,-0.00000125,-0.00000153,-0.00000142,-0.00000215,-0.0000002
 7,-0.00000252,-0.00000127,0.00000006,0.00000408,0.00000189,0.00000034,
 -0.00000403,0.00000021,-0.00000219,0.00000130,-0.00000144,0.00000058,0
 .00000134,0.00000293,0.00000117,0.00000258,0.00000100,-0.00000040,0.00
 000139,-0.00000229,-0.00000008,0.00000212,0.00000043,-0.00000477,0.000
 00274,-0.00000050,-0.00000283,0.00000455,0.00000204,-0.00000074,0.0000
 0454,0.00000192,0.00000634,0.00000163,-0.00000155,-0.00000269,0.000006
 07,0.00000351,-0.00000017,-0.00000808,0.00000317,0.00000138,0.00000062
 ,0.00000075,0.00000240,-0.00000144,0.00000203,0.00000212,0.00000052,0.
 00000340,0.00000330,-0.00000117,0.00000366,0.00000198,-0.00000031,0.00
 000177,0.00000253,-0.00000043,0.00000316,0.00000242,-0.00000147,0.0000
 0228\\\@


 FIREWORKS ENDED
 AND SPECTATORS GONE AWAY....
 AH, HOW VAST AND DARK
                     SHIKI
 Job cpu time:       0 days  6 hours 39 minutes  0.1 seconds.
 File lengths (MBytes):  RWF=   1153 Int=      0 D2E=      0 Chk=     31 Scr=      1
 Normal termination of Gaussian 09 at Tue Feb 19 13:28:47 2019.
WARNING: pbs_rusage is deprecated and values produced may not be accurate


=============================================================================
                                     Resource usage:
                                       CPU time:              31:41:48
   JobId:    5874634.r-man2            Elapsed time:          03:59:12
   Project:             q95            Requested time:        46:00:00
   Service Units:     31.89 
                                       Max physical memory:     1569MB
                                       Max virtual memory:      3089MB
                                       Requested memory:           0MB

                                       Number of cpus:               8

                                       Max jobfs disk use:       1.1GB
                                       Requested jobfs:         20.0GB
=============================================================================

