 Entering Gaussian System, Link 0=/apps/gaussian/g09e01/g09/g09
 AtFile(1): /home/507/hio507/Basis/6-31pGd.gbs
 Initial command:
 /apps/gaussian/g09e01/g09/l1.exe "/jobfs/local/5892226.r-man2/Gau-4433.inp" -scrdir="/jobfs/local/5892226.r-man2/"
 Entering Link 1 = /apps/gaussian/g09e01/g09/l1.exe PID=      4434.
  
 Copyright (c) 1988,1990,1992,1993,1995,1998,2003,2009,2015,
            Gaussian, Inc.  All Rights Reserved.
  
 This is part of the Gaussian(R) 09 program.  It is based on
 the Gaussian(R) 03 system (copyright 2003, Gaussian, Inc.),
 the Gaussian(R) 98 system (copyright 1998, Gaussian, Inc.),
 the Gaussian(R) 94 system (copyright 1995, Gaussian, Inc.),
 the Gaussian 92(TM) system (copyright 1992, Gaussian, Inc.),
 the Gaussian 90(TM) system (copyright 1990, Gaussian, Inc.),
 the Gaussian 88(TM) system (copyright 1988, Gaussian, Inc.),
 the Gaussian 86(TM) system (copyright 1986, Carnegie Mellon
 University), and the Gaussian 82(TM) system (copyright 1983,
 Carnegie Mellon University). Gaussian is a federally registered
 trademark of Gaussian, Inc.
  
 This software contains proprietary and confidential information,
 including trade secrets, belonging to Gaussian, Inc.
  
 This software is provided under written license and may be
 used, copied, transmitted, or stored only in accord with that
 written license.
  
 The following legend is applicable only to US Government
 contracts under FAR:
  
                    RESTRICTED RIGHTS LEGEND
  
 Use, reproduction and disclosure by the US Government is
 subject to restrictions as set forth in subparagraphs (a)
 and (c) of the Commercial Computer Software - Restricted
 Rights clause in FAR 52.227-19.
  
 Gaussian, Inc.
 340 Quinnipiac St., Bldg. 40, Wallingford CT 06492
  
  
 ---------------------------------------------------------------
 Warning -- This program may not be used in any manner that
 competes with the business of Gaussian, Inc. or will provide
 assistance to any competitor of Gaussian, Inc.  The licensee
 of this program is prohibited from giving any competitor of
 Gaussian, Inc. access to this program.  By using this program,
 the user acknowledges that Gaussian, Inc. is engaged in the
 business of creating and licensing software in the field of
 computational chemistry and represents and warrants to the
 licensee that it is not a competitor of Gaussian, Inc. and that
 it will not use this program in any manner prohibited above.
 ---------------------------------------------------------------
  

 Cite this work as:
 Gaussian 09, Revision E.01,
 M. J. Frisch, G. W. Trucks, H. B. Schlegel, G. E. Scuseria, 
 M. A. Robb, J. R. Cheeseman, G. Scalmani, V. Barone, B. Mennucci, 
 G. A. Petersson, H. Nakatsuji, M. Caricato, X. Li, H. P. Hratchian, 
 A. F. Izmaylov, J. Bloino, G. Zheng, J. L. Sonnenberg, M. Hada, 
 M. Ehara, K. Toyota, R. Fukuda, J. Hasegawa, M. Ishida, T. Nakajima, 
 Y. Honda, O. Kitao, H. Nakai, T. Vreven, J. A. Montgomery, Jr., 
 J. E. Peralta, F. Ogliaro, M. Bearpark, J. J. Heyd, E. Brothers, 
 K. N. Kudin, V. N. Staroverov, T. Keith, R. Kobayashi, J. Normand, 
 K. Raghavachari, A. Rendell, J. C. Burant, S. S. Iyengar, J. Tomasi, 
 M. Cossi, N. Rega, J. M. Millam, M. Klene, J. E. Knox, J. B. Cross, 
 V. Bakken, C. Adamo, J. Jaramillo, R. Gomperts, R. E. Stratmann, 
 O. Yazyev, A. J. Austin, R. Cammi, C. Pomelli, J. W. Ochterski, 
 R. L. Martin, K. Morokuma, V. G. Zakrzewski, G. A. Voth, 
 P. Salvador, J. J. Dannenberg, S. Dapprich, A. D. Daniels, 
 O. Farkas, J. B. Foresman, J. V. Ortiz, J. Cioslowski, 
 and D. J. Fox, Gaussian, Inc., Wallingford CT, 2013.
 
 ******************************************
 Gaussian 09:  ES64L-G09RevE.01 30-Nov-2015
                19-Feb-2019 
 ******************************************
 %chk=3Chloro4TFM_EtO.M062X_6-31pGd_opt.chk
 %mem=196608000
 %nproc=8
 Will use up to    8 processors via shared memory.
 ----------------------------------------------------------------------
 # M062X/Gen 6D SCF=Tight INT(grid=ultrafine) OPT IOP(2/17=4) maxdisk=2
 684354560
 ----------------------------------------------------------------------
 1/14=-1,18=20,19=15,26=4,38=1/1,3;
 2/9=110,12=2,17=4,18=5,40=1/2;
 3/5=7,8=2,11=2,16=1,25=1,30=1,71=1,74=-55,75=-5/1,2,3;
 4//1;
 5/5=2,32=2,38=5/2;
 6/7=2,8=2,9=2,10=2,28=1/1;
 7//1,2,3,16;
 1/14=-1,18=20,19=15,26=4/3(2);
 2/9=110,17=4/2;
 99//99;
 2/9=110,17=4/2;
 3/5=7,6=1,8=2,11=2,16=1,25=1,30=1,71=1,74=-55,75=-5,82=7/1,2,3;
 4/5=5,16=3,69=1/1;
 5/5=2,32=2,38=5/2;
 7//1,2,3,16;
 1/14=-1,18=20,19=15,26=4/3(-5);
 2/9=110,17=4/2;
 6/7=2,8=2,9=2,10=2,19=2,28=1/1;
 99/9=1/99;
 ---------------------------------
 3Chloro4TFM_EtO.M062X_6-31pGd_opt
 ---------------------------------
 Symbolic Z-matrix:
 Charge = -1 Multiplicity = 1
 C                    -1.93888   1.93788  -0.15512 
 C                    -0.54931   1.32576  -0.01056 
 C                     0.53602   2.38012  -0.17423 
 N                     1.85222   1.77104  -0.04749 
 C                     2.96966   2.51524  -0.14563 
 O                     2.94647   3.7372   -0.37771 
 N                     4.14063   1.79489   0.01437 
 C                     5.43603   2.29096   0.01723 
 C                     5.75263   3.64985   0.17989 
 C                     6.48293   1.36113  -0.11139 
 C                     7.80255   1.7774   -0.09139 
 C                     8.1291    3.12811   0.05454 
 C                     7.08298   4.04279   0.19288 
 H                    -2.71747   1.17852  -0.03598 
 H                    -2.06381   2.39714  -1.14204 
 H                    -2.10579   2.71324   0.60086 
 H                    -0.40462   0.5385   -0.76082 
 H                    -0.44834   0.85286   0.97418 
 H                     0.41217   3.16527   0.58273 
 H                     0.44876   2.85913  -1.15675 
 H                     1.91251   0.79496   0.26952 
 H                     4.04925   0.76513  -0.00208 
 H                     4.9747    4.38954   0.30335 
 H                     6.25107   0.30698  -0.22882 
 H                     8.59384   1.04288  -0.19602 
 Cl                    7.41077   5.74688   0.4015 
 C                     9.56343   3.55872   0.0639 
 F                     9.85198   4.4347   -0.92221 
 F                     10.40131   2.51985  -0.09498 
 F                     9.92069   4.16256   1.21757 
 O                     1.90929  -0.97572   0.87896 
 O                     3.87565  -1.04343  -0.18049 
 C                     2.85962  -1.60399   0.33489 
 C                     2.81723  -3.12772   0.27994 
 C                     1.54839  -3.75973   0.83365 
 H                     3.69926  -3.48864   0.82321 
 H                     2.971    -3.41539  -0.76675 
 H                     1.40734  -3.50717   1.88905 
 H                     1.59747  -4.85005   0.75083 
 H                     0.66474  -3.41843   0.28529 
 
 Add virtual bond connecting atoms O31        and H21        Dist= 3.54D+00.
 Add virtual bond connecting atoms O32        and H22        Dist= 3.45D+00.

 GradGradGradGradGradGradGradGradGradGradGradGradGradGradGradGradGradGrad
 Berny optimization.
 Initialization pass.
                           ----------------------------
                           !    Initial Parameters    !
                           ! (Angstroms and Degrees)  !
 --------------------------                            --------------------------
 ! Name  Definition              Value          Derivative Info.                !
 --------------------------------------------------------------------------------
 ! R1    R(1,2)                  1.5253         estimate D2E/DX2                !
 ! R2    R(1,14)                 1.0941         estimate D2E/DX2                !
 ! R3    R(1,15)                 1.0957         estimate D2E/DX2                !
 ! R4    R(1,16)                 1.0957         estimate D2E/DX2                !
 ! R5    R(2,3)                  1.522          estimate D2E/DX2                !
 ! R6    R(2,17)                 1.0971         estimate D2E/DX2                !
 ! R7    R(2,18)                 1.0971         estimate D2E/DX2                !
 ! R8    R(3,4)                  1.4558         estimate D2E/DX2                !
 ! R9    R(3,19)                 1.0976         estimate D2E/DX2                !
 ! R10   R(3,20)                 1.0965         estimate D2E/DX2                !
 ! R11   R(4,5)                  1.3462         estimate D2E/DX2                !
 ! R12   R(4,21)                 1.028          estimate D2E/DX2                !
 ! R13   R(5,6)                  1.244          estimate D2E/DX2                !
 ! R14   R(5,7)                  1.3841         estimate D2E/DX2                !
 ! R15   R(7,8)                  1.3871         estimate D2E/DX2                !
 ! R16   R(7,22)                 1.0339         estimate D2E/DX2                !
 ! R17   R(8,9)                  1.4047         estimate D2E/DX2                !
 ! R18   R(8,10)                 1.4061         estimate D2E/DX2                !
 ! R19   R(9,13)                 1.3872         estimate D2E/DX2                !
 ! R20   R(9,23)                 1.0805         estimate D2E/DX2                !
 ! R21   R(10,11)                1.3839         estimate D2E/DX2                !
 ! R22   R(10,24)                1.0857         estimate D2E/DX2                !
 ! R23   R(11,12)                1.3973         estimate D2E/DX2                !
 ! R24   R(11,25)                1.0847         estimate D2E/DX2                !
 ! R25   R(12,13)                1.3965         estimate D2E/DX2                !
 ! R26   R(12,27)                1.4976         estimate D2E/DX2                !
 ! R27   R(13,26)                1.7478         estimate D2E/DX2                !
 ! R28   R(21,31)                1.8726         estimate D2E/DX2                !
 ! R29   R(22,32)                1.8256         estimate D2E/DX2                !
 ! R30   R(27,28)                1.3502         estimate D2E/DX2                !
 ! R31   R(27,29)                1.3441         estimate D2E/DX2                !
 ! R32   R(27,30)                1.3503         estimate D2E/DX2                !
 ! R33   R(31,33)                1.2625         estimate D2E/DX2                !
 ! R34   R(32,33)                1.2697         estimate D2E/DX2                !
 ! R35   R(33,34)                1.5253         estimate D2E/DX2                !
 ! R36   R(34,35)                1.5218         estimate D2E/DX2                !
 ! R37   R(34,36)                1.097          estimate D2E/DX2                !
 ! R38   R(34,37)                1.0963         estimate D2E/DX2                !
 ! R39   R(35,38)                1.0943         estimate D2E/DX2                !
 ! R40   R(35,39)                1.0946         estimate D2E/DX2                !
 ! R41   R(35,40)                1.0945         estimate D2E/DX2                !
 ! A1    A(2,1,14)             111.0669         estimate D2E/DX2                !
 ! A2    A(2,1,15)             110.9443         estimate D2E/DX2                !
 ! A3    A(2,1,16)             110.9392         estimate D2E/DX2                !
 ! A4    A(14,1,15)            107.9303         estimate D2E/DX2                !
 ! A5    A(14,1,16)            107.9151         estimate D2E/DX2                !
 ! A6    A(15,1,16)            107.9072         estimate D2E/DX2                !
 ! A7    A(1,2,3)              111.189          estimate D2E/DX2                !
 ! A8    A(1,2,17)             110.0788         estimate D2E/DX2                !
 ! A9    A(1,2,18)             109.9932         estimate D2E/DX2                !
 ! A10   A(3,2,17)             109.2402         estimate D2E/DX2                !
 ! A11   A(3,2,18)             109.2395         estimate D2E/DX2                !
 ! A12   A(17,2,18)            107.0014         estimate D2E/DX2                !
 ! A13   A(2,3,4)              110.2135         estimate D2E/DX2                !
 ! A14   A(2,3,19)             109.9332         estimate D2E/DX2                !
 ! A15   A(2,3,20)             110.0126         estimate D2E/DX2                !
 ! A16   A(4,3,19)             109.9525         estimate D2E/DX2                !
 ! A17   A(4,3,20)             109.4334         estimate D2E/DX2                !
 ! A18   A(19,3,20)            107.2455         estimate D2E/DX2                !
 ! A19   A(3,4,5)              120.8536         estimate D2E/DX2                !
 ! A20   A(3,4,21)             118.4954         estimate D2E/DX2                !
 ! A21   A(5,4,21)             119.9142         estimate D2E/DX2                !
 ! A22   A(4,5,6)              122.7627         estimate D2E/DX2                !
 ! A23   A(4,5,7)              113.9621         estimate D2E/DX2                !
 ! A24   A(6,5,7)              123.2682         estimate D2E/DX2                !
 ! A25   A(5,7,8)              127.1705         estimate D2E/DX2                !
 ! A26   A(5,7,22)             116.215          estimate D2E/DX2                !
 ! A27   A(8,7,22)             116.0235         estimate D2E/DX2                !
 ! A28   A(7,8,9)              123.8254         estimate D2E/DX2                !
 ! A29   A(7,8,10)             117.2985         estimate D2E/DX2                !
 ! A30   A(9,8,10)             118.8478         estimate D2E/DX2                !
 ! A31   A(8,9,13)             119.4217         estimate D2E/DX2                !
 ! A32   A(8,9,23)             120.8762         estimate D2E/DX2                !
 ! A33   A(13,9,23)            119.6999         estimate D2E/DX2                !
 ! A34   A(8,10,11)            120.6467         estimate D2E/DX2                !
 ! A35   A(8,10,24)            119.5345         estimate D2E/DX2                !
 ! A36   A(11,10,24)           119.8188         estimate D2E/DX2                !
 ! A37   A(10,11,12)           121.0074         estimate D2E/DX2                !
 ! A38   A(10,11,25)           119.3767         estimate D2E/DX2                !
 ! A39   A(12,11,25)           119.6151         estimate D2E/DX2                !
 ! A40   A(11,12,13)           117.9326         estimate D2E/DX2                !
 ! A41   A(11,12,27)           120.1618         estimate D2E/DX2                !
 ! A42   A(13,12,27)           121.9052         estimate D2E/DX2                !
 ! A43   A(9,13,12)            122.1373         estimate D2E/DX2                !
 ! A44   A(9,13,26)            117.2022         estimate D2E/DX2                !
 ! A45   A(12,13,26)           120.6594         estimate D2E/DX2                !
 ! A46   A(12,27,28)           112.7471         estimate D2E/DX2                !
 ! A47   A(12,27,29)           111.9665         estimate D2E/DX2                !
 ! A48   A(12,27,30)           112.7886         estimate D2E/DX2                !
 ! A49   A(28,27,29)           106.374          estimate D2E/DX2                !
 ! A50   A(28,27,30)           106.1013         estimate D2E/DX2                !
 ! A51   A(29,27,30)           106.3621         estimate D2E/DX2                !
 ! A52   A(21,31,33)           109.2087         estimate D2E/DX2                !
 ! A53   A(22,32,33)           118.2808         estimate D2E/DX2                !
 ! A54   A(31,33,32)           123.8882         estimate D2E/DX2                !
 ! A55   A(31,33,34)           119.4545         estimate D2E/DX2                !
 ! A56   A(32,33,34)           116.6571         estimate D2E/DX2                !
 ! A57   A(33,34,35)           115.1462         estimate D2E/DX2                !
 ! A58   A(33,34,36)           106.7667         estimate D2E/DX2                !
 ! A59   A(33,34,37)           107.0143         estimate D2E/DX2                !
 ! A60   A(35,34,36)           110.7052         estimate D2E/DX2                !
 ! A61   A(35,34,37)           110.8144         estimate D2E/DX2                !
 ! A62   A(36,34,37)           105.8849         estimate D2E/DX2                !
 ! A63   A(34,35,38)           111.2552         estimate D2E/DX2                !
 ! A64   A(34,35,39)           110.4122         estimate D2E/DX2                !
 ! A65   A(34,35,40)           111.1822         estimate D2E/DX2                !
 ! A66   A(38,35,39)           107.978          estimate D2E/DX2                !
 ! A67   A(38,35,40)           107.8874         estimate D2E/DX2                !
 ! A68   A(39,35,40)           107.9927         estimate D2E/DX2                !
 ! A69   L(4,21,31,1,-1)       176.5506         estimate D2E/DX2                !
 ! A70   L(7,22,32,1,-1)       179.4439         estimate D2E/DX2                !
 ! A71   L(4,21,31,1,-2)       181.0972         estimate D2E/DX2                !
 ! A72   L(7,22,32,1,-2)       175.2955         estimate D2E/DX2                !
 ! D1    D(14,1,2,3)          -179.9341         estimate D2E/DX2                !
 ! D2    D(14,1,2,17)           58.8682         estimate D2E/DX2                !
 ! D3    D(14,1,2,18)          -58.795          estimate D2E/DX2                !
 ! D4    D(15,1,2,3)            60.0205         estimate D2E/DX2                !
 ! D5    D(15,1,2,17)          -61.1772         estimate D2E/DX2                !
 ! D6    D(15,1,2,18)         -178.8404         estimate D2E/DX2                !
 ! D7    D(16,1,2,3)           -59.9112         estimate D2E/DX2                !
 ! D8    D(16,1,2,17)          178.8912         estimate D2E/DX2                !
 ! D9    D(16,1,2,18)           61.228          estimate D2E/DX2                !
 ! D10   D(1,2,3,4)           -179.3617         estimate D2E/DX2                !
 ! D11   D(1,2,3,19)            59.2835         estimate D2E/DX2                !
 ! D12   D(1,2,3,20)           -58.6022         estimate D2E/DX2                !
 ! D13   D(17,2,3,4)           -57.674          estimate D2E/DX2                !
 ! D14   D(17,2,3,19)         -179.0288         estimate D2E/DX2                !
 ! D15   D(17,2,3,20)           63.0854         estimate D2E/DX2                !
 ! D16   D(18,2,3,4)            59.0584         estimate D2E/DX2                !
 ! D17   D(18,2,3,19)          -62.2964         estimate D2E/DX2                !
 ! D18   D(18,2,3,20)          179.8179         estimate D2E/DX2                !
 ! D19   D(2,3,4,5)           -179.4357         estimate D2E/DX2                !
 ! D20   D(2,3,4,21)            -9.2788         estimate D2E/DX2                !
 ! D21   D(19,3,4,5)           -58.0924         estimate D2E/DX2                !
 ! D22   D(19,3,4,21)          112.0645         estimate D2E/DX2                !
 ! D23   D(20,3,4,5)            59.4583         estimate D2E/DX2                !
 ! D24   D(20,3,4,21)         -130.3848         estimate D2E/DX2                !
 ! D25   D(3,4,5,6)             -1.7441         estimate D2E/DX2                !
 ! D26   D(3,4,5,7)            179.1893         estimate D2E/DX2                !
 ! D27   D(21,4,5,6)          -171.7624         estimate D2E/DX2                !
 ! D28   D(21,4,5,7)             9.171          estimate D2E/DX2                !
 ! D29   D(3,4,31,33)          146.0187         estimate D2E/DX2                !
 ! D30   D(5,4,31,33)          -44.5478         estimate D2E/DX2                !
 ! D31   D(4,5,7,8)           -177.3252         estimate D2E/DX2                !
 ! D32   D(4,5,7,22)            11.8989         estimate D2E/DX2                !
 ! D33   D(6,5,7,8)              3.6136         estimate D2E/DX2                !
 ! D34   D(6,5,7,22)          -167.1624         estimate D2E/DX2                !
 ! D35   D(5,7,8,9)             16.1842         estimate D2E/DX2                !
 ! D36   D(5,7,8,10)          -165.7789         estimate D2E/DX2                !
 ! D37   D(22,7,8,9)          -173.0246         estimate D2E/DX2                !
 ! D38   D(22,7,8,10)            5.0123         estimate D2E/DX2                !
 ! D39   D(5,7,32,33)          -39.4754         estimate D2E/DX2                !
 ! D40   D(8,7,32,33)          151.5883         estimate D2E/DX2                !
 ! D41   D(7,8,9,13)           178.8112         estimate D2E/DX2                !
 ! D42   D(7,8,9,23)            -0.6491         estimate D2E/DX2                !
 ! D43   D(10,8,9,13)            0.8028         estimate D2E/DX2                !
 ! D44   D(10,8,9,23)         -178.6575         estimate D2E/DX2                !
 ! D45   D(7,8,10,11)         -178.7619         estimate D2E/DX2                !
 ! D46   D(7,8,10,24)            1.3231         estimate D2E/DX2                !
 ! D47   D(9,8,10,11)           -0.6237         estimate D2E/DX2                !
 ! D48   D(9,8,10,24)          179.4612         estimate D2E/DX2                !
 ! D49   D(8,9,13,12)           -0.276          estimate D2E/DX2                !
 ! D50   D(8,9,13,26)         -179.9002         estimate D2E/DX2                !
 ! D51   D(23,9,13,12)         179.1906         estimate D2E/DX2                !
 ! D52   D(23,9,13,26)          -0.4335         estimate D2E/DX2                !
 ! D53   D(8,10,11,12)          -0.1            estimate D2E/DX2                !
 ! D54   D(8,10,11,25)        -179.7724         estimate D2E/DX2                !
 ! D55   D(24,10,11,12)        179.8148         estimate D2E/DX2                !
 ! D56   D(24,10,11,25)          0.1423         estimate D2E/DX2                !
 ! D57   D(10,11,12,13)          0.6263         estimate D2E/DX2                !
 ! D58   D(10,11,12,27)       -179.5639         estimate D2E/DX2                !
 ! D59   D(25,11,12,13)       -179.702          estimate D2E/DX2                !
 ! D60   D(25,11,12,27)          0.1077         estimate D2E/DX2                !
 ! D61   D(11,12,13,9)          -0.4396         estimate D2E/DX2                !
 ! D62   D(11,12,13,26)        179.1718         estimate D2E/DX2                !
 ! D63   D(27,12,13,9)         179.7542         estimate D2E/DX2                !
 ! D64   D(27,12,13,26)         -0.6344         estimate D2E/DX2                !
 ! D65   D(11,12,27,28)        120.656          estimate D2E/DX2                !
 ! D66   D(11,12,27,29)          0.7403         estimate D2E/DX2                !
 ! D67   D(11,12,27,30)       -119.1893         estimate D2E/DX2                !
 ! D68   D(13,12,27,28)        -59.5421         estimate D2E/DX2                !
 ! D69   D(13,12,27,29)       -179.4577         estimate D2E/DX2                !
 ! D70   D(13,12,27,30)         60.6127         estimate D2E/DX2                !
 ! D71   D(21,31,33,32)         20.4775         estimate D2E/DX2                !
 ! D72   D(21,31,33,34)       -159.6844         estimate D2E/DX2                !
 ! D73   D(22,32,33,31)          5.4755         estimate D2E/DX2                !
 ! D74   D(22,32,33,34)       -174.3668         estimate D2E/DX2                !
 ! D75   D(31,33,34,35)          3.5726         estimate D2E/DX2                !
 ! D76   D(31,33,34,36)       -119.7496         estimate D2E/DX2                !
 ! D77   D(31,33,34,37)        127.2251         estimate D2E/DX2                !
 ! D78   D(32,33,34,35)       -176.5778         estimate D2E/DX2                !
 ! D79   D(32,33,34,36)         60.1001         estimate D2E/DX2                !
 ! D80   D(32,33,34,37)        -52.9252         estimate D2E/DX2                !
 ! D81   D(33,34,35,38)        -60.4745         estimate D2E/DX2                !
 ! D82   D(33,34,35,39)        179.6496         estimate D2E/DX2                !
 ! D83   D(33,34,35,40)         59.8026         estimate D2E/DX2                !
 ! D84   D(36,34,35,38)         60.731          estimate D2E/DX2                !
 ! D85   D(36,34,35,39)        -59.145          estimate D2E/DX2                !
 ! D86   D(36,34,35,40)       -178.9919         estimate D2E/DX2                !
 ! D87   D(37,34,35,38)        177.9067         estimate D2E/DX2                !
 ! D88   D(37,34,35,39)         58.0308         estimate D2E/DX2                !
 ! D89   D(37,34,35,40)        -61.8162         estimate D2E/DX2                !
 --------------------------------------------------------------------------------
 Trust Radius=3.00D-01 FncErr=1.00D-07 GrdErr=1.00D-06
 Number of steps in this run=    212 maximum allowed number of steps=    240.
 GradGradGradGradGradGradGradGradGradGradGradGradGradGradGradGradGradGrad

                          Input orientation:                          
 ---------------------------------------------------------------------
 Center     Atomic      Atomic             Coordinates (Angstroms)
 Number     Number       Type             X           Y           Z
 ---------------------------------------------------------------------
      1          6           0       -1.938876    1.937879   -0.155120
      2          6           0       -0.549309    1.325755   -0.010560
      3          6           0        0.536020    2.380120   -0.174226
      4          7           0        1.852224    1.771041   -0.047485
      5          6           0        2.969661    2.515240   -0.145633
      6          8           0        2.946475    3.737203   -0.377715
      7          7           0        4.140629    1.794892    0.014372
      8          6           0        5.436026    2.290960    0.017226
      9          6           0        5.752629    3.649852    0.179887
     10          6           0        6.482929    1.361132   -0.111395
     11          6           0        7.802546    1.777397   -0.091386
     12          6           0        8.129104    3.128112    0.054538
     13          6           0        7.082979    4.042786    0.192882
     14          1           0       -2.717470    1.178517   -0.035978
     15          1           0       -2.063812    2.397144   -1.142043
     16          1           0       -2.105787    2.713244    0.600859
     17          1           0       -0.404624    0.538505   -0.760822
     18          1           0       -0.448343    0.852857    0.974179
     19          1           0        0.412175    3.165273    0.582733
     20          1           0        0.448759    2.859128   -1.156748
     21          1           0        1.912505    0.794962    0.269518
     22          1           0        4.049253    0.765134   -0.002083
     23          1           0        4.974700    4.389541    0.303348
     24          1           0        6.251070    0.306981   -0.228816
     25          1           0        8.593839    1.042884   -0.196019
     26         17           0        7.410766    5.746878    0.401496
     27          6           0        9.563428    3.558725    0.063899
     28          9           0        9.851979    4.434700   -0.922209
     29          9           0       10.401309    2.519846   -0.094976
     30          9           0        9.920689    4.162561    1.217573
     31          8           0        1.909285   -0.975719    0.878956
     32          8           0        3.875651   -1.043427   -0.180487
     33          6           0        2.859621   -1.603989    0.334892
     34          6           0        2.817225   -3.127723    0.279943
     35          6           0        1.548392   -3.759729    0.833651
     36          1           0        3.699260   -3.488638    0.823210
     37          1           0        2.970997   -3.415389   -0.766749
     38          1           0        1.407340   -3.507169    1.889046
     39          1           0        1.597467   -4.850054    0.750829
     40          1           0        0.664736   -3.418431    0.285291
 ---------------------------------------------------------------------
                    Distance matrix (angstroms):
                    1          2          3          4          5
     1  C    0.000000
     2  C    1.525284   0.000000
     3  C    2.514171   1.521976   0.000000
     4  N    3.796296   2.442745   1.455828   0.000000
     5  C    4.942385   3.717024   2.437556   1.346153   0.000000
     6  O    5.210928   4.262673   2.773693   2.274254   1.244023
     7  N    6.083548   4.713409   3.656674   2.289365   1.384077
     8  C    7.385361   6.062724   4.904555   3.621897   2.481891
     9  C    7.886846   6.719532   5.380578   4.335295   3.022949
    10  C    8.441645   7.033050   6.033905   4.649251   3.698134
    11  C    9.742953   8.364448   7.291950   5.950487   4.889185
    12  C   10.140258   8.863835   7.633265   6.422715   5.199570
    13  C    9.270686   8.104040   6.764754   5.707837   4.400838
    14  H    1.094090   2.173303   3.471046   4.607963   5.843142
    15  H    1.095696   2.172981   2.774182   4.114050   5.132507
    16  H    1.095698   2.172920   2.773242   4.119945   5.133870
    17  H    2.163112   1.097083   2.149524   2.668587   3.958754
    18  H    2.162008   1.097059   2.149497   2.679453   3.962353
    19  H    2.752883   2.158766   1.097629   2.101143   2.737480
    20  H    2.748229   2.158962   1.096545   2.093827   2.737801
    21  H    4.039767   2.533913   2.145774   1.028034   2.061379
    22  H    6.103806   4.632617   3.870480   2.416784   2.061309
    23  H    7.349720   6.324555   4.895684   4.090169   2.781146
    24  H    8.351077   6.879731   6.079694   4.639633   3.956131
    25  H   10.570751   9.149402   8.168054   6.782451   5.813927
    26  Cl  10.111089   9.114763   7.676500   6.848814   5.519624
    27  C   11.618009  10.356599   9.107135   7.916495   6.679112
    28  F   12.076705  10.894192   9.569110   8.476809   7.187051
    29  F   12.354047  11.015853   9.866597   8.581947   7.431822
    30  F   12.144249  10.916804   9.653300   8.509986   7.272468
    31  O    4.936265   3.483204   3.775806   2.899352   3.789588
    32  O    6.534337   5.022168   4.782661   3.468886   3.672348
    33  C    5.984188   4.508163   4.640199   3.542864   4.148621
    34  C    6.962048   5.590296   5.978838   5.003631   5.661041
    35  C    6.752884   5.565536   6.303845   5.608755   6.508013
    36  H    7.886241   6.474866   6.741164   5.642152   6.125155
    37  H    7.289610   5.953387   6.314121   5.354255   5.963065
    38  H    6.710017   5.549246   6.298925   5.639820   6.546004
    39  H    7.707302   6.582475   7.365990   6.673912   7.545470
    40  H    5.971834   4.905989   5.818154   5.333993   6.380190
                    6          7          8          9         10
     6  O    0.000000
     7  N    2.313506   0.000000
     8  C    2.906108   1.387136   0.000000
     9  C    2.862351   2.463091   1.404736   0.000000
    10  C    4.268859   2.385443   1.406104   2.420004   0.000000
    11  C    5.244450   3.663486   2.424038   2.789594   1.383859
    12  C    5.236170   4.205594   2.820440   2.436299   2.420670
    13  C    4.186841   3.707063   2.410851   1.387227   2.764762
    14  H    6.224462   6.885926   8.229208   8.825909   9.202520
    15  H    5.242416   6.339960   7.589648   8.025804   8.670775
    16  H    5.247041   6.340745   7.576140   7.925223   8.723620
    17  H    4.648473   4.778991   6.147329   6.962556   6.966840
    18  H    4.655304   4.781979   6.132675   6.848805   7.034156
    19  H    2.769881   4.012773   5.130624   5.377505   6.371091
    20  H    2.759799   4.016718   5.154984   5.526561   6.304599
    21  H    3.185088   2.455503   3.836256   4.785915   4.621084
    22  H    3.192243   1.033936   2.061955   3.355026   2.507976
    23  H    2.236759   2.740691   2.167656   1.080536   3.408523
    24  H    4.765391   2.593643   2.158937   3.404448   1.085717
    25  H    6.259799   4.521157   3.402197   3.874281   2.136441
    26  Cl   4.957405   5.144109   3.998829   2.682545   4.512062
    27  C    6.634075   5.702658   4.317969   3.813653   3.788089
    28  F    6.961966   6.361233   4.997879   4.316859   4.631926
    29  F    7.558866   6.303462   4.971822   4.791940   4.086146
    30  F    7.166975   6.361025   5.005589   4.325781   4.629508
    31  O    4.986644   3.660968   4.883818   6.054412   5.230668
    32  O    4.874084   2.857314   3.686733   5.067523   3.547475
    33  C    5.389219   3.646383   4.680748   5.999697   4.703135
    34  C    6.897567   5.104318   6.024057   7.386618   5.808645
    35  C    7.721789   6.184232   7.238169   8.544291   7.173980
    36  H    7.363538   5.363275   6.088491   7.455752   5.669442
    37  H    7.163206   5.396779   6.265254   7.651877   5.964756
    38  H    7.745196   6.252769   7.304267   8.545508   7.311889
    39  H    8.765524   7.152996   8.140442   9.478383   7.949214
    40  H    7.539828   6.271680   7.445416   8.709672   7.540090
                   11         12         13         14         15
    11  C    0.000000
    12  C    1.397271   0.000000
    13  C    2.393861   1.396475   0.000000
    14  H   10.537194  11.020765  10.212993   0.000000
    15  H    9.941478  10.288909   9.389034   1.770790   0.000000
    16  H    9.976476  10.257853   9.293414   1.770622   1.771832
    17  H    8.327102   8.955187   8.321883   2.506845   2.520471
    18  H    8.370625   8.921609   8.216257   2.505077   3.077817
    19  H    7.549717   7.735074   6.739559   3.758281   3.113741
    20  H    7.508883   7.779926   6.872803   3.755740   2.554733
    21  H    5.982308   6.643485   6.106393   4.655869   4.513379
    22  H    3.888426   4.715088   4.470404   6.779423   6.429038
    23  H    3.869862   3.406373   2.139459   8.342379   7.456504
    24  H    2.141982   3.400894   3.850473   9.012851   8.622067
    25  H    1.084712   2.151031   3.381323  11.313254  10.784920
    26  Cl   4.019105   2.737576   1.747826  11.119463  10.167146
    27  C    2.509572   1.497599   2.530529  12.509829  11.747182
    28  F    3.457124   2.372658   3.010711  13.014576  12.090742
    29  F    2.702742   2.356960   3.662447  13.187305  12.509622
    30  F    3.448030   2.373291   3.019426  13.046032  12.341505
    31  O    6.576605   7.497149   7.240387   5.185046   5.589825
    32  O    4.835855   5.962285   6.024610   6.958963   6.931042
    33  C    6.003998   7.087935   7.052871   6.243703   6.513877
    34  C    7.003678   8.209892   8.343886   7.019713   7.508044
    35  C    8.404159   9.557988   9.587569   6.583321   7.406650
    36  H    6.738291   7.999735   8.280653   7.980913   8.468628
    37  H    7.124956   8.372454   8.570511   7.348242   7.699071
    38  H    8.529209   9.621563   9.596440   6.532643   7.489813
    39  H    9.117864  10.334323  10.463496   7.455295   8.337254
    40  H    8.836676   9.931126   9.842365   5.716158   6.580514
                   16         17         18         19         20
    16  H    0.000000
    17  H    3.078574   0.000000
    18  H    2.519430   1.763791   0.000000
    19  H    2.558278   3.061407   2.498196   0.000000
    20  H    3.104218   2.504059   3.061170   1.766595   0.000000
    21  H    4.465004   2.548816   2.464448   2.822670   2.904749
    22  H    6.484071   4.523722   4.603167   4.396705   4.322224
    23  H    7.282292   6.700751   6.509035   4.732180   4.995817
    24  H    8.735875   6.680936   6.828420   6.551423   6.406351
    25  H   10.858503   9.030267   9.119568   8.488263   8.400242
    26  Cl   9.990368   9.463533   9.276044   7.461757   7.696542
    27  C   11.712119  10.448156  10.410854   9.174390   9.222614
    28  F   12.176671  10.972889  11.068989   9.642935   9.537189
    29  F   12.527930  11.006237  11.028912  10.032880  10.014775
    30  F   12.129178  11.120248  10.887157   9.581724   9.851588
    31  O    5.459541   3.214953   2.985158   4.413265   4.580751
    32  O    7.106382   4.600005   4.860665   5.503756   5.284563
    33  C    6.585173   4.055387   4.169820   5.366309   5.287405
    34  C    7.645648   4.990464   5.195279   6.743719   6.596673
    35  C    7.436840   4.983114   5.028185   7.022079   6.998581
    36  H    8.497726   5.963967   6.006162   7.425449   7.401360
    37  H    8.074913   5.198858   5.739394   7.188448   6.773724
    38  H    7.259133   5.164542   4.826009   6.871556   7.122181
    39  H    8.422592   5.943907   6.062872   8.104236   8.024329
    40  H    6.735934   4.230274   4.467372   6.595256   6.444677
                   21         22         23         24         25
    21  H    0.000000
    22  H    2.154146   0.000000
    23  H    4.722200   3.753141   0.000000
    24  H    4.394270   2.260379   4.310409   0.000000
    25  H    6.702120   4.557194   4.954558   2.455849   0.000000
    26  Cl   7.400659   6.023323   2.790415   5.597738   4.887151
    27  C    8.137400   6.181799   4.669478   4.650939   2.708711
    28  F    8.814939   6.927047   5.029104   5.521359   3.689808
    29  F    8.669941   6.590619   5.753478   4.705228   2.336359
    30  F    8.739023   6.892302   5.034892   5.515763   3.673031
    31  O    1.872629   2.895904   6.205974   4.660856   7.064955
    32  O    2.726925   1.825612   5.564095   2.732866   5.158899
    33  C    2.579974   2.672362   6.355860   3.933383   6.337907
    34  C    4.025679   4.092892   7.820774   4.883371   7.140712
    35  C    4.603915   5.237092   8.856151   6.307309   8.588576
    36  H    4.674217   4.347204   7.997669   4.693103   6.747624
    37  H    4.463330   4.384532   8.128768   4.990420   7.198492
    38  H    4.624542   5.367368   8.809002   6.518803   8.757639
    39  H    5.674251   6.173205   9.847643   7.015036   9.196329
    40  H    4.394298   5.388855   8.918551   6.734251   9.110745
                   26         27         28         29         30
    26  Cl   0.000000
    27  C    3.088032   0.000000
    28  F    3.071405   1.350187   0.000000
    29  F    4.427592   1.344081   2.157022   0.000000
    30  F    3.078271   1.350266   2.158113   2.156917   0.000000
    31  O    8.699861   8.933723   9.777690   9.234825   9.523611
    32  O    7.677499   7.320542   8.141040   7.435620   8.099343
    33  C    8.645959   8.465701   9.324116   8.606269   9.159197
    34  C    9.993695   9.500869  10.398230   9.463294  10.221868
    35  C   11.177198  10.880859  11.797511  10.893555  11.532797
    36  H    9.962323   9.199475  10.182423   9.047785   9.869272
    37  H   10.248097   9.632673  10.440114   9.533511  10.471918
    38  H   11.130647  10.944395  11.928469  11.006940  11.478359
    39  H   12.091793  11.603274  12.535657  11.512535  12.276852
    40  H   11.380919  11.310015  12.146406  11.410898  12.000552
                   31         32         33         34         35
    31  O    0.000000
    32  O    2.234635   0.000000
    33  C    1.262484   1.269709   0.000000
    34  C    2.411284   2.382551   1.525314   0.000000
    35  C    2.807669   3.717916   2.572022   1.521828   0.000000
    36  H    3.085754   2.649071   2.120225   1.096989   2.167910
    37  H    3.128508   2.605437   2.123014   1.096339   2.168791
    38  H    2.771365   4.055311   2.854226   2.172779   1.094322
    39  H    3.888974   4.532977   3.507560   2.162399   1.094567
    40  H    2.805027   4.020891   2.848189   2.172039   1.094546
                   36         37         38         39         40
    36  H    0.000000
    37  H    1.750344   0.000000
    38  H    2.527696   3.083292   0.000000
    39  H    2.505240   2.499578   1.770601   0.000000
    40  H    3.082633   2.534885   1.769566   1.770949   0.000000
 Stoichiometry    C14H17ClF3N2O3(1-)
 Framework group  C1[X(C14H17ClF3N2O3)]
 Deg. of freedom   114
 Full point group                 C1      NOp   1
 Largest Abelian subgroup         C1      NOp   1
 Largest concise Abelian subgroup C1      NOp   1
                         Standard orientation:                         
 ---------------------------------------------------------------------
 Center     Atomic      Atomic             Coordinates (Angstroms)
 Number     Number       Type             X           Y           Z
 ---------------------------------------------------------------------
      1          6           0        5.977261   -3.250957   -0.113505
      2          6           0        5.048912   -2.043142   -0.037075
      3          6           0        3.590875   -2.461154   -0.162792
      4          7           0        2.725413   -1.292073   -0.102295
      5          6           0        1.387578   -1.418654   -0.181695
      6          8           0        0.823426   -2.515967   -0.340532
      7          7           0        0.703100   -0.219078   -0.091271
      8          6           0       -0.672022   -0.036929   -0.088596
      9          6           0       -1.596895   -1.067680    0.146873
     10          6           0       -1.149933    1.269136   -0.295779
     11          6           0       -2.508153    1.533888   -0.281254
     12          6           0       -3.438015    0.513998   -0.063198
     13          6           0       -2.953483   -0.777794    0.152775
     14          1           0        7.024663   -2.948360   -0.021767
     15          1           0        5.860017   -3.775260   -1.068444
     16          1           0        5.760467   -3.962974    0.690601
     17          1           0        5.290955   -1.330928   -0.835673
     18          1           0        5.193707   -1.518437    0.915425
     19          1           0        3.331570   -3.161181    0.641890
     20          1           0        3.431139   -2.984550   -1.113030
     21          1           0        3.140418   -0.387402    0.154987
     22          1           0        1.274271    0.639483   -0.166498
     23          1           0       -1.264789   -2.079194    0.331539
     24          1           0       -0.444477    2.075830   -0.470011
     25          1           0       -2.854320    2.548410   -0.447128
     26         17           0       -4.052401   -2.103078    0.454261
     27          6           0       -4.903988    0.820137   -0.061063
     28          9           0       -5.583356    0.127375   -0.999969
     29          9           0       -5.146427    2.120377   -0.300127
     30          9           0       -5.496472    0.533217    1.117859
     31          8           0        3.992500    1.202280    0.658580
     32          8           0        2.287724    2.131729   -0.447522
     33          6           0        3.452284    2.171772    0.056818
     34          6           0        4.215615    3.484473   -0.087147
     35          6           0        5.636760    3.469166    0.456979
     36          1           0        3.616862    4.255272    0.413601
     37          1           0        4.209042    3.744244   -1.152246
     38          1           0        5.648963    3.246788    1.528399
     39          1           0        6.112813    4.443576    0.308739
     40          1           0        6.246250    2.714478   -0.049974
 ---------------------------------------------------------------------
 Rotational constants (GHZ):      0.3622993      0.0929776      0.0757539
 General basis read from cards:  (6D, 7F)
 There are   475 symmetry adapted cartesian basis functions of A   symmetry.
 There are   475 symmetry adapted basis functions of A   symmetry.
   475 basis functions,   828 primitive gaussians,   475 cartesian basis functions
    92 alpha electrons       92 beta electrons
       nuclear repulsion energy      2079.1446945106 Hartrees.
 NAtoms=   40 NActive=   40 NUniq=   40 SFac= 1.00D+00 NAtFMM=   60 NAOKFM=F Big=F
 Integral buffers will be    131072 words long.
 Raffenetti 2 integral format.
 Two-electron integral symmetry is turned on.
 One-electron integrals computed using PRISM.
 NBasis=   475 RedAO= T EigKep=  1.13D-06  NBF=   475
 NBsUse=   474 1.00D-06 EigRej=  3.97D-07 NBFU=   474
 ExpMin= 4.38D-02 ExpMax= 2.52D+04 ExpMxC= 3.78D+03 IAcc=3 IRadAn=         5 AccDes= 0.00D+00
 Harris functional with IExCor= 1009 and IRadAn=       5 diagonalized for initial guess.
 HarFok:  IExCor= 1009 AccDes= 0.00D+00 IRadAn=         5 IDoV= 1 UseB2=F ITyADJ=14
 ICtDFT=  3500011 ScaDFX=  1.000000  1.000000  1.000000  1.000000
 FoFCou: FMM=F IPFlag=           0 FMFlag=      100000 FMFlg1=           0
         NFxFlg=           0 DoJE=T BraDBF=F KetDBF=T FulRan=T
         wScrn=  0.000000 ICntrl=     500 IOpCl=  0 I1Cent=   200000004 NGrid=           0
         NMat0=    1 NMatS0=      1 NMatT0=    0 NMatD0=    1 NMtDS0=    0 NMtDT0=    0
 Petite list used in FoFCou.
 Requested convergence on RMS density matrix=1.00D-08 within 128 cycles.
 Requested convergence on MAX density matrix=1.00D-06.
 Requested convergence on             energy=1.00D-06.
 No special actions if energy rises.
 EnCoef did     2 forward-backward iterations
 SCF Done:  E(RM062X) =  -1638.33903059     A.U. after   16 cycles
            NFock= 16  Conv=0.98D-08     -V/T= 2.0067

 **********************************************************************

            Population analysis using the SCF density.

 **********************************************************************

 Orbital symmetries:
       Occupied  (A) (A) (A) (A) (A) (A) (A) (A) (A) (A) (A) (A)
                 (A) (A) (A) (A) (A) (A) (A) (A) (A) (A) (A) (A)
                 (A) (A) (A) (A) (A) (A) (A) (A) (A) (A) (A) (A)
                 (A) (A) (A) (A) (A) (A) (A) (A) (A) (A) (A) (A)
                 (A) (A) (A) (A) (A) (A) (A) (A) (A) (A) (A) (A)
                 (A) (A) (A) (A) (A) (A) (A) (A) (A) (A) (A) (A)
                 (A) (A) (A) (A) (A) (A) (A) (A) (A) (A) (A) (A)
                 (A) (A) (A) (A) (A) (A) (A) (A)
       Virtual   (A) (A) (A) (A) (A) (A) (A) (A) (A) (A) (A) (A)
                 (A) (A) (A) (A) (A) (A) (A) (A) (A) (A) (A) (A)
                 (A) (A) (A) (A) (A) (A) (A) (A) (A) (A) (A) (A)
                 (A) (A) (A) (A) (A) (A) (A) (A) (A) (A) (A) (A)
                 (A) (A) (A) (A) (A) (A) (A) (A) (A) (A) (A) (A)
                 (A) (A) (A) (A) (A) (A) (A) (A) (A) (A) (A) (A)
                 (A) (A) (A) (A) (A) (A) (A) (A) (A) (A) (A) (A)
                 (A) (A) (A) (A) (A) (A) (A) (A) (A) (A) (A) (A)
                 (A) (A) (A) (A) (A) (A) (A) (A) (A) (A) (A) (A)
                 (A) (A) (A) (A) (A) (A) (A) (A) (A) (A) (A) (A)
                 (A) (A) (A) (A) (A) (A) (A) (A) (A) (A) (A) (A)
                 (A) (A) (A) (A) (A) (A) (A) (A) (A) (A) (A) (A)
                 (A) (A) (A) (A) (A) (A) (A) (A) (A) (A) (A) (A)
                 (A) (A) (A) (A) (A) (A) (A) (A) (A) (A) (A) (A)
                 (A) (A) (A) (A) (A) (A) (A) (A) (A) (A) (A) (A)
                 (A) (A) (A) (A) (A) (A) (A) (A) (A) (A) (A) (A)
                 (A) (A) (A) (A) (A) (A) (A) (A) (A) (A) (A) (A)
                 (A) (A) (A) (A) (A) (A) (A) (A) (A) (A) (A) (A)
                 (A) (A) (A) (A) (A) (A) (A) (A) (A) (A) (A) (A)
                 (A) (A) (A) (A) (A) (A) (A) (A) (A) (A) (A) (A)
                 (A) (A) (A) (A) (A) (A) (A) (A) (A) (A) (A) (A)
                 (A) (A) (A) (A) (A) (A) (A) (A) (A) (A) (A) (A)
                 (A) (A) (A) (A) (A) (A) (A) (A) (A) (A) (A) (A)
                 (A) (A) (A) (A) (A) (A) (A) (A) (A) (A) (A) (A)
                 (A) (A) (A) (A) (A) (A) (A) (A) (A) (A) (A) (A)
                 (A) (A) (A) (A) (A) (A) (A) (A) (A) (A) (A) (A)
                 (A) (A) (A) (A) (A) (A) (A) (A) (A) (A) (A) (A)
                 (A) (A) (A) (A) (A) (A) (A) (A) (A) (A) (A) (A)
                 (A) (A) (A) (A) (A) (A) (A) (A) (A) (A) (A) (A)
                 (A) (A) (A) (A) (A) (A) (A) (A) (A) (A) (A) (A)
                 (A) (A) (A) (A) (A) (A) (A) (A) (A) (A) (A) (A)
                 (A) (A) (A) (A) (A) (A) (A) (A) (A) (A)
 The electronic state is 1-A.
 Alpha  occ. eigenvalues -- -102.58565 -25.21868 -25.20923 -25.20916 -19.49073
 Alpha  occ. eigenvalues --  -19.46361 -19.46069 -14.67425 -14.65531 -10.72469
 Alpha  occ. eigenvalues --  -10.56326 -10.53650 -10.51633 -10.51303 -10.48845
 Alpha  occ. eigenvalues --  -10.48227 -10.47591 -10.46405 -10.46215 -10.45634
 Alpha  occ. eigenvalues --  -10.44995 -10.43098 -10.42994  -9.73227  -7.45631
 Alpha  occ. eigenvalues --   -7.44974  -7.44951  -1.37914  -1.28835  -1.28097
 Alpha  occ. eigenvalues --   -1.05064  -1.02243  -0.94200  -0.92263  -0.91592
 Alpha  occ. eigenvalues --   -0.90225  -0.84715  -0.79742  -0.78128  -0.75231
 Alpha  occ. eigenvalues --   -0.74758  -0.71521  -0.68176  -0.63594  -0.62144
 Alpha  occ. eigenvalues --   -0.61514  -0.60104  -0.59607  -0.58563  -0.56424
 Alpha  occ. eigenvalues --   -0.55547  -0.51444  -0.50046  -0.48508  -0.48334
 Alpha  occ. eigenvalues --   -0.46229  -0.45645  -0.45168  -0.44459  -0.44202
 Alpha  occ. eigenvalues --   -0.43695  -0.42982  -0.42230  -0.41592  -0.41339
 Alpha  occ. eigenvalues --   -0.40745  -0.40378  -0.39966  -0.39004  -0.38319
 Alpha  occ. eigenvalues --   -0.36960  -0.36458  -0.36021  -0.35488  -0.33856
 Alpha  occ. eigenvalues --   -0.33439  -0.33073  -0.32827  -0.31934  -0.30929
 Alpha  occ. eigenvalues --   -0.30654  -0.30260  -0.29095  -0.28633  -0.27048
 Alpha  occ. eigenvalues --   -0.22778  -0.21530  -0.20140  -0.19044  -0.18918
 Alpha  occ. eigenvalues --   -0.18212  -0.16783
 Alpha virt. eigenvalues --    0.09761   0.10004   0.10049   0.10420   0.10699
 Alpha virt. eigenvalues --    0.11203   0.12088   0.12465   0.12981   0.13199
 Alpha virt. eigenvalues --    0.13454   0.13586   0.14494   0.14848   0.15050
 Alpha virt. eigenvalues --    0.15204   0.15702   0.16144   0.16500   0.17001
 Alpha virt. eigenvalues --    0.17503   0.17542   0.18092   0.18177   0.18655
 Alpha virt. eigenvalues --    0.19175   0.19533   0.19922   0.20527   0.20860
 Alpha virt. eigenvalues --    0.20985   0.21383   0.21819   0.21838   0.22409
 Alpha virt. eigenvalues --    0.22673   0.22944   0.23437   0.24082   0.24579
 Alpha virt. eigenvalues --    0.24754   0.25403   0.25970   0.26170   0.26950
 Alpha virt. eigenvalues --    0.27759   0.27949   0.28401   0.28728   0.29523
 Alpha virt. eigenvalues --    0.29725   0.30112   0.30360   0.30821   0.31041
 Alpha virt. eigenvalues --    0.31775   0.31823   0.32295   0.32514   0.32629
 Alpha virt. eigenvalues --    0.33041   0.33457   0.33769   0.34558   0.34763
 Alpha virt. eigenvalues --    0.35024   0.35095   0.35473   0.35530   0.36032
 Alpha virt. eigenvalues --    0.36231   0.36932   0.37140   0.37612   0.37901
 Alpha virt. eigenvalues --    0.38013   0.38704   0.39136   0.39165   0.39704
 Alpha virt. eigenvalues --    0.39921   0.40131   0.40443   0.40887   0.41048
 Alpha virt. eigenvalues --    0.41649   0.41969   0.42242   0.42603   0.43076
 Alpha virt. eigenvalues --    0.43525   0.43835   0.44161   0.44349   0.44591
 Alpha virt. eigenvalues --    0.45244   0.45619   0.45948   0.46306   0.46553
 Alpha virt. eigenvalues --    0.46785   0.47361   0.47462   0.48245   0.48763
 Alpha virt. eigenvalues --    0.49233   0.49314   0.49659   0.50456   0.50503
 Alpha virt. eigenvalues --    0.50964   0.52020   0.52445   0.53189   0.53292
 Alpha virt. eigenvalues --    0.54220   0.54592   0.55113   0.56036   0.56212
 Alpha virt. eigenvalues --    0.56990   0.57818   0.58388   0.59479   0.59846
 Alpha virt. eigenvalues --    0.61641   0.62391   0.63494   0.65319   0.66042
 Alpha virt. eigenvalues --    0.68298   0.69315   0.70189   0.71520   0.72232
 Alpha virt. eigenvalues --    0.76122   0.78130   0.78938   0.79402   0.81227
 Alpha virt. eigenvalues --    0.81484   0.81655   0.82270   0.83795   0.84009
 Alpha virt. eigenvalues --    0.84497   0.85751   0.85769   0.86069   0.86648
 Alpha virt. eigenvalues --    0.87722   0.88023   0.89801   0.90081   0.90923
 Alpha virt. eigenvalues --    0.91553   0.92399   0.93463   0.93664   0.94365
 Alpha virt. eigenvalues --    0.94925   0.95350   0.96941   0.97478   0.98255
 Alpha virt. eigenvalues --    0.99146   0.99461   1.00669   1.01956   1.03710
 Alpha virt. eigenvalues --    1.04429   1.05844   1.06357   1.06824   1.07532
 Alpha virt. eigenvalues --    1.07908   1.09242   1.09739   1.10528   1.12221
 Alpha virt. eigenvalues --    1.12408   1.13204   1.13637   1.15025   1.16026
 Alpha virt. eigenvalues --    1.16904   1.17253   1.18184   1.18984   1.19787
 Alpha virt. eigenvalues --    1.20344   1.21999   1.23211   1.25236   1.25867
 Alpha virt. eigenvalues --    1.27130   1.27439   1.27708   1.28743   1.30983
 Alpha virt. eigenvalues --    1.31381   1.31745   1.32240   1.32693   1.33678
 Alpha virt. eigenvalues --    1.34087   1.37568   1.38953   1.40436   1.41729
 Alpha virt. eigenvalues --    1.42539   1.43303   1.44671   1.45341   1.46281
 Alpha virt. eigenvalues --    1.49089   1.49495   1.50326   1.51643   1.52166
 Alpha virt. eigenvalues --    1.53107   1.53544   1.54012   1.56189   1.56440
 Alpha virt. eigenvalues --    1.57909   1.58705   1.59503   1.59957   1.61086
 Alpha virt. eigenvalues --    1.61731   1.61899   1.63649   1.65504   1.66983
 Alpha virt. eigenvalues --    1.67478   1.68496   1.69493   1.70205   1.71922
 Alpha virt. eigenvalues --    1.73584   1.74190   1.75474   1.76394   1.77304
 Alpha virt. eigenvalues --    1.78591   1.79457   1.82400   1.83097   1.83221
 Alpha virt. eigenvalues --    1.83502   1.84305   1.84798   1.85455   1.87481
 Alpha virt. eigenvalues --    1.89693   1.90568   1.91910   1.94246   1.95843
 Alpha virt. eigenvalues --    1.96555   1.97321   1.97875   1.98522   1.98693
 Alpha virt. eigenvalues --    1.99000   2.00743   2.01340   2.01851   2.02031
 Alpha virt. eigenvalues --    2.02961   2.03668   2.05366   2.06972   2.07129
 Alpha virt. eigenvalues --    2.07409   2.07967   2.08614   2.08960   2.11692
 Alpha virt. eigenvalues --    2.12861   2.13479   2.15953   2.16243   2.17206
 Alpha virt. eigenvalues --    2.17638   2.18231   2.19016   2.20130   2.21245
 Alpha virt. eigenvalues --    2.21608   2.22134   2.22837   2.22926   2.23436
 Alpha virt. eigenvalues --    2.24277   2.25111   2.26169   2.27131   2.27678
 Alpha virt. eigenvalues --    2.28074   2.30086   2.31180   2.32543   2.34569
 Alpha virt. eigenvalues --    2.36097   2.38036   2.39414   2.40806   2.41236
 Alpha virt. eigenvalues --    2.42456   2.42774   2.47177   2.48014   2.48680
 Alpha virt. eigenvalues --    2.49692   2.50330   2.50828   2.52067   2.54717
 Alpha virt. eigenvalues --    2.54969   2.56992   2.60300   2.62035   2.63665
 Alpha virt. eigenvalues --    2.68011   2.68955   2.70799   2.73068   2.74322
 Alpha virt. eigenvalues --    2.75390   2.76091   2.76903   2.78424   2.84106
 Alpha virt. eigenvalues --    2.87246   2.88673   2.88830   2.88872   2.89755
 Alpha virt. eigenvalues --    2.91409   2.92877   2.95513   2.99394   3.04809
 Alpha virt. eigenvalues --    3.05415   3.08969   3.12744   3.21296   3.23503
 Alpha virt. eigenvalues --    3.24624   3.26288   3.28063   3.34294   3.36159
 Alpha virt. eigenvalues --    3.39773   3.42129   3.46197   3.53788   4.34299
 Alpha virt. eigenvalues --    4.36460   4.37445   4.40135   4.42012   4.47977
 Alpha virt. eigenvalues --    4.51072   4.52915   4.53413   4.55354   4.57317
 Alpha virt. eigenvalues --    4.58570   4.60349   4.64826   4.71515   4.75106
 Alpha virt. eigenvalues --    4.77469   4.82252   4.87958   4.94619   5.69094
 Alpha virt. eigenvalues --    6.18664   7.10133
          Condensed to atoms (all electrons):
               1          2          3          4          5          6
     1  C    5.904454  -0.273640   0.013947  -0.012530  -0.037396  -0.000851
     2  C   -0.273640   6.508593  -0.646182  -0.074192   0.263529   0.025386
     3  C    0.013947  -0.646182   7.195246   0.399208  -0.820531  -0.092255
     4  N   -0.012530  -0.074192   0.399208   7.851630   0.307357  -0.164862
     5  C   -0.037396   0.263529  -0.820531   0.307357   6.674021   0.663187
     6  O   -0.000851   0.025386  -0.092255  -0.164862   0.663187   8.369730
     7  N    0.002502   0.032805  -0.115538  -0.407331   0.230992  -0.096951
     8  C   -0.009703   0.022000  -0.345467  -0.041330  -0.844609  -0.266793
     9  C    0.003736  -0.020031   0.035538  -0.061405   0.936475   0.277071
    10  C   -0.004356   0.020935  -0.172385  -0.059355  -1.337634  -0.123967
    11  C   -0.000123  -0.000379   0.025581   0.012469   0.577798  -0.003429
    12  C   -0.000283   0.001398  -0.039396  -0.009508  -0.400548  -0.025522
    13  C    0.000110  -0.002232  -0.035507  -0.015615  -0.635022   0.062676
    14  H    0.460620  -0.136583   0.030286   0.000426  -0.000981   0.000003
    15  H    0.428077  -0.069864  -0.011395   0.000533  -0.000416  -0.000021
    16  H    0.417166  -0.062948  -0.009977   0.000007   0.002351  -0.000021
    17  H   -0.042404   0.428051  -0.070282   0.002918  -0.001691  -0.000125
    18  H   -0.035203   0.435072  -0.086010   0.006807  -0.000784  -0.000098
    19  H   -0.021826  -0.053115   0.418919  -0.066079   0.012410   0.002475
    20  H   -0.005413  -0.050498   0.485919  -0.043580  -0.062788  -0.000882
    21  H    0.000744  -0.000701  -0.037722   0.158252   0.007285   0.003468
    22  H    0.000036  -0.001746   0.001548   0.014985  -0.037298   0.002632
    23  H    0.000012  -0.000080   0.001966   0.000629   0.020743  -0.008684
    24  H   -0.000003   0.000020  -0.000634   0.000455  -0.010103   0.000065
    25  H    0.000000   0.000000   0.000010   0.000005   0.001421  -0.000002
    26  Cl   0.000007  -0.000018   0.000822   0.000854   0.002694  -0.002603
    27  C   -0.000020   0.000023  -0.004211   0.001836  -0.138305  -0.001567
    28  F   -0.000000   0.000000   0.000001   0.000000   0.000199   0.000005
    29  F   -0.000000   0.000000  -0.000000   0.000001   0.000126  -0.000001
    30  F   -0.000000  -0.000000  -0.000005  -0.000000  -0.000364  -0.000003
    31  O    0.007691  -0.006629   0.008225  -0.052861   0.004007  -0.000237
    32  O   -0.000399  -0.002687   0.007151   0.024658  -0.010152  -0.000361
    33  C   -0.009904  -0.018412   0.026511   0.008236  -0.020789  -0.001170
    34  C    0.008041  -0.007346   0.030864  -0.048522  -0.030679  -0.001062
    35  C   -0.000715   0.002777  -0.006867   0.005011   0.002198   0.000084
    36  H   -0.000023  -0.000339   0.000254   0.000082  -0.000808  -0.000000
    37  H    0.000077   0.000739  -0.000388   0.000073   0.000393   0.000000
    38  H    0.000149   0.000506  -0.000314  -0.000035   0.000118  -0.000000
    39  H   -0.000014  -0.000056   0.000028   0.000019   0.000006   0.000000
    40  H   -0.000356  -0.000472  -0.000143  -0.000043  -0.000043  -0.000000
               7          8          9         10         11         12
     1  C    0.002502  -0.009703   0.003736  -0.004356  -0.000123  -0.000283
     2  C    0.032805   0.022000  -0.020031   0.020935  -0.000379   0.001398
     3  C   -0.115538  -0.345467   0.035538  -0.172385   0.025581  -0.039396
     4  N   -0.407331  -0.041330  -0.061405  -0.059355   0.012469  -0.009508
     5  C    0.230992  -0.844609   0.936475  -1.337634   0.577798  -0.400548
     6  O   -0.096951  -0.266793   0.277071  -0.123967  -0.003429  -0.025522
     7  N    7.910012   0.152722  -0.174203  -0.005646   0.029562  -0.045116
     8  C    0.152722  15.303723  -0.609855   0.091943  -0.800521  -2.936755
     9  C   -0.174203  -0.609855  15.587546  -8.158121   2.974000  -0.995783
    10  C   -0.005646   0.091943  -8.158121  19.147315  -5.090486  -0.752795
    11  C    0.029562  -0.800521   2.974000  -5.090486  18.680437  -0.274671
    12  C   -0.045116  -2.936755  -0.995783  -0.752795  -0.274671  18.532811
    13  C    0.019141  -2.282187  -3.188079   2.129955 -10.146013  -3.854893
    14  H    0.000018  -0.000027   0.000000  -0.000002  -0.000000  -0.000000
    15  H    0.000025  -0.000076   0.000015  -0.000015  -0.000000  -0.000000
    16  H    0.000032   0.000079  -0.000024   0.000013   0.000000   0.000000
    17  H   -0.000355  -0.000174  -0.000642   0.000657   0.000032   0.000002
    18  H    0.000180  -0.001456   0.000414  -0.000294  -0.000013  -0.000007
    19  H    0.001527   0.003233   0.003209   0.001282  -0.000115   0.000184
    20  H   -0.001981  -0.006973  -0.003040  -0.001109   0.000143  -0.000171
    21  H    0.015146   0.001716   0.001370   0.002432   0.000496   0.000283
    22  H    0.118851   0.010458   0.085474  -0.095500   0.009181   0.008783
    23  H   -0.010109  -0.105517   0.287589   0.029729  -0.020984   0.104074
    24  H   -0.013059   0.037521   0.049977   0.161850   0.043032   0.035122
    25  H    0.000024   0.001595  -0.015578   0.033655   0.324605   0.001992
    26  Cl   0.000592  -0.053661  -0.026268   0.090093   0.097728  -0.032803
    27  C    0.007298  -1.096636  -0.674204   0.058729  -0.345558  -2.271777
    28  F   -0.000053   0.008566  -0.003663   0.024647  -0.005497   0.323750
    29  F    0.000028   0.022202  -0.012623   0.102427   0.078378  -0.067048
    30  F    0.000014  -0.003095  -0.022904   0.012890   0.024891   0.350449
    31  O    0.018291  -0.027234  -0.010042   0.018190   0.001432   0.000175
    32  O   -0.028820  -0.187247   0.007201   0.131602   0.061841   0.004224
    33  C   -0.006522  -0.000815  -0.029897   0.012826  -0.008553  -0.001923
    34  C   -0.015839  -0.014772  -0.000902   0.002226  -0.002463   0.001227
    35  C    0.004339  -0.003326  -0.002153   0.005358  -0.001413   0.000239
    36  H   -0.000279  -0.002316  -0.000314   0.002425   0.000727   0.000068
    37  H   -0.000065  -0.000205   0.000032  -0.000099   0.000004  -0.000014
    38  H   -0.000012  -0.000053   0.000002   0.000028   0.000003   0.000000
    39  H   -0.000006   0.000039   0.000002  -0.000029  -0.000002  -0.000000
    40  H    0.000011  -0.000134  -0.000018   0.000166   0.000017   0.000001
              13         14         15         16         17         18
     1  C    0.000110   0.460620   0.428077   0.417166  -0.042404  -0.035203
     2  C   -0.002232  -0.136583  -0.069864  -0.062948   0.428051   0.435072
     3  C   -0.035507   0.030286  -0.011395  -0.009977  -0.070282  -0.086010
     4  N   -0.015615   0.000426   0.000533   0.000007   0.002918   0.006807
     5  C   -0.635022  -0.000981  -0.000416   0.002351  -0.001691  -0.000784
     6  O    0.062676   0.000003  -0.000021  -0.000021  -0.000125  -0.000098
     7  N    0.019141   0.000018   0.000025   0.000032  -0.000355   0.000180
     8  C   -2.282187  -0.000027  -0.000076   0.000079  -0.000174  -0.001456
     9  C   -3.188079   0.000000   0.000015  -0.000024  -0.000642   0.000414
    10  C    2.129955  -0.000002  -0.000015   0.000013   0.000657  -0.000294
    11  C  -10.146013  -0.000000  -0.000000   0.000000   0.000032  -0.000013
    12  C   -3.854893  -0.000000  -0.000000   0.000000   0.000002  -0.000007
    13  C   24.013093   0.000000   0.000002  -0.000002  -0.000032   0.000024
    14  H    0.000000   0.508361  -0.027631  -0.027341  -0.003145  -0.003075
    15  H    0.000002  -0.027631   0.512195  -0.032966  -0.004626   0.003854
    16  H   -0.000002  -0.027341  -0.032966   0.511193   0.003939  -0.004506
    17  H   -0.000032  -0.003145  -0.004626   0.003939   0.488932  -0.030093
    18  H    0.000024  -0.003075   0.003854  -0.004506  -0.030093   0.474647
    19  H    0.000711  -0.000074  -0.000363   0.002913   0.004358  -0.005702
    20  H   -0.000513  -0.000065   0.003010  -0.000367  -0.005520   0.004182
    21  H   -0.000397  -0.000000   0.000001  -0.000001   0.000306   0.001376
    22  H    0.006931  -0.000000  -0.000000  -0.000000   0.000001   0.000003
    23  H   -0.003969  -0.000000  -0.000000   0.000000   0.000000  -0.000000
    24  H   -0.021860   0.000000  -0.000000   0.000000   0.000000  -0.000000
    25  H   -0.029282  -0.000000   0.000000   0.000000  -0.000000   0.000000
    26  Cl  -0.427786   0.000000  -0.000000   0.000000  -0.000000   0.000000
    27  C    0.356506  -0.000000  -0.000000   0.000000   0.000000  -0.000000
    28  F   -0.257572  -0.000000  -0.000000   0.000000   0.000000  -0.000000
    29  F   -0.133873  -0.000000  -0.000000   0.000000  -0.000000  -0.000000
    30  F   -0.286678  -0.000000  -0.000000   0.000000   0.000000  -0.000000
    31  O   -0.000819  -0.000014  -0.000032   0.000007  -0.000692  -0.003916
    32  O   -0.000928   0.000000  -0.000000   0.000000   0.000123  -0.000084
    33  C    0.002035  -0.000133   0.000003  -0.000060  -0.001508   0.000225
    34  C    0.000685   0.000038  -0.000016  -0.000007   0.000653   0.000258
    35  C    0.000275  -0.000012   0.000009  -0.000002  -0.000366   0.000114
    36  H   -0.000005   0.000000   0.000000  -0.000000   0.000000   0.000000
    37  H    0.000003  -0.000000   0.000000  -0.000000  -0.000001   0.000000
    38  H    0.000000   0.000000  -0.000000  -0.000000  -0.000000  -0.000001
    39  H    0.000000   0.000000  -0.000000   0.000000   0.000000   0.000000
    40  H   -0.000000   0.000000  -0.000000  -0.000000   0.000004  -0.000000
              19         20         21         22         23         24
     1  C   -0.021826  -0.005413   0.000744   0.000036   0.000012  -0.000003
     2  C   -0.053115  -0.050498  -0.000701  -0.001746  -0.000080   0.000020
     3  C    0.418919   0.485919  -0.037722   0.001548   0.001966  -0.000634
     4  N   -0.066079  -0.043580   0.158252   0.014985   0.000629   0.000455
     5  C    0.012410  -0.062788   0.007285  -0.037298   0.020743  -0.010103
     6  O    0.002475  -0.000882   0.003468   0.002632  -0.008684   0.000065
     7  N    0.001527  -0.001981   0.015146   0.118851  -0.010109  -0.013059
     8  C    0.003233  -0.006973   0.001716   0.010458  -0.105517   0.037521
     9  C    0.003209  -0.003040   0.001370   0.085474   0.287589   0.049977
    10  C    0.001282  -0.001109   0.002432  -0.095500   0.029729   0.161850
    11  C   -0.000115   0.000143   0.000496   0.009181  -0.020984   0.043032
    12  C    0.000184  -0.000171   0.000283   0.008783   0.104074   0.035122
    13  C    0.000711  -0.000513  -0.000397   0.006931  -0.003969  -0.021860
    14  H   -0.000074  -0.000065  -0.000000  -0.000000  -0.000000   0.000000
    15  H   -0.000363   0.003010   0.000001  -0.000000  -0.000000  -0.000000
    16  H    0.002913  -0.000367  -0.000001  -0.000000   0.000000   0.000000
    17  H    0.004358  -0.005520   0.000306   0.000001   0.000000   0.000000
    18  H   -0.005702   0.004182   0.001376   0.000003  -0.000000  -0.000000
    19  H    0.530509  -0.046024   0.001583   0.000017   0.000000   0.000000
    20  H   -0.046024   0.521884   0.001654  -0.000001  -0.000000   0.000000
    21  H    0.001583   0.001654   0.242106   0.006927   0.000001   0.000004
    22  H    0.000017  -0.000001   0.006927   0.252353  -0.000164   0.006761
    23  H    0.000000  -0.000000   0.000001  -0.000164   0.416324  -0.000098
    24  H    0.000000   0.000000   0.000004   0.006761  -0.000098   0.438487
    25  H    0.000000  -0.000000   0.000000  -0.000008   0.000011  -0.003283
    26  Cl   0.000001   0.000001   0.000003  -0.000059   0.007438   0.000006
    27  C    0.000007  -0.000005   0.000007   0.001222   0.002027   0.016430
    28  F    0.000000  -0.000000   0.000000   0.000000  -0.000009   0.000010
    29  F   -0.000000  -0.000000   0.000000  -0.000000   0.000017   0.000096
    30  F    0.000000  -0.000000   0.000000   0.000000  -0.000003   0.000009
    31  O    0.000165  -0.000317   0.066585  -0.001442   0.000001   0.000001
    32  O    0.000025  -0.000025  -0.000567   0.084880   0.000011  -0.002138
    33  C   -0.000238   0.001148  -0.010995  -0.006741   0.000009  -0.000151
    34  C   -0.000038   0.000033   0.020604   0.013060  -0.000002   0.000236
    35  C   -0.000001   0.000023  -0.003176  -0.002507  -0.000000  -0.000100
    36  H   -0.000000   0.000000  -0.000012  -0.000010   0.000000  -0.000003
    37  H    0.000000   0.000000  -0.000034  -0.000002  -0.000000   0.000000
    38  H    0.000000   0.000000  -0.000006   0.000000  -0.000000   0.000000
    39  H    0.000000   0.000000   0.000000   0.000000  -0.000000  -0.000000
    40  H   -0.000000  -0.000000  -0.000004  -0.000000   0.000000   0.000000
              25         26         27         28         29         30
     1  C    0.000000   0.000007  -0.000020  -0.000000  -0.000000  -0.000000
     2  C    0.000000  -0.000018   0.000023   0.000000   0.000000  -0.000000
     3  C    0.000010   0.000822  -0.004211   0.000001  -0.000000  -0.000005
     4  N    0.000005   0.000854   0.001836   0.000000   0.000001  -0.000000
     5  C    0.001421   0.002694  -0.138305   0.000199   0.000126  -0.000364
     6  O   -0.000002  -0.002603  -0.001567   0.000005  -0.000001  -0.000003
     7  N    0.000024   0.000592   0.007298  -0.000053   0.000028   0.000014
     8  C    0.001595  -0.053661  -1.096636   0.008566   0.022202  -0.003095
     9  C   -0.015578  -0.026268  -0.674204  -0.003663  -0.012623  -0.022904
    10  C    0.033655   0.090093   0.058729   0.024647   0.102427   0.012890
    11  C    0.324605   0.097728  -0.345558  -0.005497   0.078378   0.024891
    12  C    0.001992  -0.032803  -2.271777   0.323750  -0.067048   0.350449
    13  C   -0.029282  -0.427786   0.356506  -0.257572  -0.133873  -0.286678
    14  H   -0.000000   0.000000  -0.000000  -0.000000  -0.000000  -0.000000
    15  H    0.000000  -0.000000  -0.000000  -0.000000  -0.000000  -0.000000
    16  H    0.000000   0.000000   0.000000   0.000000   0.000000   0.000000
    17  H   -0.000000  -0.000000   0.000000   0.000000  -0.000000   0.000000
    18  H    0.000000   0.000000  -0.000000  -0.000000  -0.000000  -0.000000
    19  H    0.000000   0.000001   0.000007   0.000000  -0.000000   0.000000
    20  H   -0.000000   0.000001  -0.000005  -0.000000  -0.000000  -0.000000
    21  H    0.000000   0.000003   0.000007   0.000000   0.000000   0.000000
    22  H   -0.000008  -0.000059   0.001222   0.000000  -0.000000   0.000000
    23  H    0.000011   0.007438   0.002027  -0.000009   0.000017  -0.000003
    24  H   -0.003283   0.000006   0.016430   0.000010   0.000096   0.000009
    25  H    0.477948   0.000539  -0.024758  -0.000155   0.006909  -0.000188
    26  Cl   0.000539  17.085661   0.055262  -0.005661   0.003460  -0.004108
    27  C   -0.024758   0.055262   8.365368   0.032440   0.105147   0.048590
    28  F   -0.000155  -0.005661   0.032440   9.264618  -0.045009  -0.063575
    29  F    0.006909   0.003460   0.105147  -0.045009   9.333079  -0.045323
    30  F   -0.000188  -0.004108   0.048590  -0.063575  -0.045323   9.265300
    31  O    0.000000   0.000001  -0.000029  -0.000000  -0.000000  -0.000000
    32  O    0.000031   0.000043   0.000260  -0.000000   0.000001  -0.000000
    33  C    0.000010  -0.000054  -0.000653   0.000002   0.000003   0.000001
    34  C   -0.000006  -0.000012  -0.000059   0.000000  -0.000001   0.000000
    35  C    0.000000   0.000000   0.000007   0.000000  -0.000000   0.000000
    36  H    0.000000  -0.000000   0.000002  -0.000000   0.000000   0.000000
    37  H   -0.000000   0.000000  -0.000001  -0.000000  -0.000000  -0.000000
    38  H   -0.000000  -0.000000  -0.000000  -0.000000   0.000000  -0.000000
    39  H    0.000000   0.000000   0.000000  -0.000000   0.000000  -0.000000
    40  H   -0.000000   0.000000   0.000000  -0.000000   0.000000   0.000000
              31         32         33         34         35         36
     1  C    0.007691  -0.000399  -0.009904   0.008041  -0.000715  -0.000023
     2  C   -0.006629  -0.002687  -0.018412  -0.007346   0.002777  -0.000339
     3  C    0.008225   0.007151   0.026511   0.030864  -0.006867   0.000254
     4  N   -0.052861   0.024658   0.008236  -0.048522   0.005011   0.000082
     5  C    0.004007  -0.010152  -0.020789  -0.030679   0.002198  -0.000808
     6  O   -0.000237  -0.000361  -0.001170  -0.001062   0.000084  -0.000000
     7  N    0.018291  -0.028820  -0.006522  -0.015839   0.004339  -0.000279
     8  C   -0.027234  -0.187247  -0.000815  -0.014772  -0.003326  -0.002316
     9  C   -0.010042   0.007201  -0.029897  -0.000902  -0.002153  -0.000314
    10  C    0.018190   0.131602   0.012826   0.002226   0.005358   0.002425
    11  C    0.001432   0.061841  -0.008553  -0.002463  -0.001413   0.000727
    12  C    0.000175   0.004224  -0.001923   0.001227   0.000239   0.000068
    13  C   -0.000819  -0.000928   0.002035   0.000685   0.000275  -0.000005
    14  H   -0.000014   0.000000  -0.000133   0.000038  -0.000012   0.000000
    15  H   -0.000032  -0.000000   0.000003  -0.000016   0.000009   0.000000
    16  H    0.000007   0.000000  -0.000060  -0.000007  -0.000002  -0.000000
    17  H   -0.000692   0.000123  -0.001508   0.000653  -0.000366   0.000000
    18  H   -0.003916  -0.000084   0.000225   0.000258   0.000114   0.000000
    19  H    0.000165   0.000025  -0.000238  -0.000038  -0.000001  -0.000000
    20  H   -0.000317  -0.000025   0.001148   0.000033   0.000023   0.000000
    21  H    0.066585  -0.000567  -0.010995   0.020604  -0.003176  -0.000012
    22  H   -0.001442   0.084880  -0.006741   0.013060  -0.002507  -0.000010
    23  H    0.000001   0.000011   0.000009  -0.000002  -0.000000   0.000000
    24  H    0.000001  -0.002138  -0.000151   0.000236  -0.000100  -0.000003
    25  H    0.000000   0.000031   0.000010  -0.000006   0.000000   0.000000
    26  Cl   0.000001   0.000043  -0.000054  -0.000012   0.000000  -0.000000
    27  C   -0.000029   0.000260  -0.000653  -0.000059   0.000007   0.000002
    28  F   -0.000000  -0.000000   0.000002   0.000000   0.000000  -0.000000
    29  F   -0.000000   0.000001   0.000003  -0.000001  -0.000000   0.000000
    30  F   -0.000000  -0.000000   0.000001   0.000000   0.000000   0.000000
    31  O    8.539695  -0.182556   0.369107  -0.157713   0.056421   0.000303
    32  O   -0.182556   8.572156   0.452971  -0.301891   0.043221  -0.002162
    33  C    0.369107   0.452971   5.637317  -0.918289   0.018317  -0.095554
    34  C   -0.157713  -0.301891  -0.918289   7.529153  -0.339607   0.456480
    35  C    0.056421   0.043221   0.018317  -0.339607   5.818522  -0.041162
    36  H    0.000303  -0.002162  -0.095554   0.456480  -0.041162   0.504228
    37  H    0.002916  -0.002396  -0.049349   0.418973  -0.052093  -0.028937
    38  H   -0.003892  -0.000004  -0.002776  -0.054005   0.413206  -0.003944
    39  H    0.001867  -0.000248   0.035630  -0.092249   0.394737  -0.002266
    40  H   -0.005295   0.000029  -0.012406  -0.050831   0.422429   0.003611
              37         38         39         40
     1  C    0.000077   0.000149  -0.000014  -0.000356
     2  C    0.000739   0.000506  -0.000056  -0.000472
     3  C   -0.000388  -0.000314   0.000028  -0.000143
     4  N    0.000073  -0.000035   0.000019  -0.000043
     5  C    0.000393   0.000118   0.000006  -0.000043
     6  O    0.000000  -0.000000   0.000000  -0.000000
     7  N   -0.000065  -0.000012  -0.000006   0.000011
     8  C   -0.000205  -0.000053   0.000039  -0.000134
     9  C    0.000032   0.000002   0.000002  -0.000018
    10  C   -0.000099   0.000028  -0.000029   0.000166
    11  C    0.000004   0.000003  -0.000002   0.000017
    12  C   -0.000014   0.000000  -0.000000   0.000001
    13  C    0.000003   0.000000   0.000000  -0.000000
    14  H   -0.000000   0.000000   0.000000   0.000000
    15  H    0.000000  -0.000000  -0.000000  -0.000000
    16  H   -0.000000  -0.000000   0.000000  -0.000000
    17  H   -0.000001  -0.000000   0.000000   0.000004
    18  H    0.000000  -0.000001   0.000000  -0.000000
    19  H    0.000000   0.000000   0.000000  -0.000000
    20  H    0.000000   0.000000   0.000000  -0.000000
    21  H   -0.000034  -0.000006   0.000000  -0.000004
    22  H   -0.000002   0.000000   0.000000  -0.000000
    23  H   -0.000000  -0.000000  -0.000000   0.000000
    24  H    0.000000   0.000000  -0.000000   0.000000
    25  H   -0.000000  -0.000000   0.000000  -0.000000
    26  Cl   0.000000  -0.000000   0.000000   0.000000
    27  C   -0.000001  -0.000000   0.000000   0.000000
    28  F   -0.000000  -0.000000  -0.000000  -0.000000
    29  F   -0.000000   0.000000   0.000000   0.000000
    30  F   -0.000000  -0.000000  -0.000000   0.000000
    31  O    0.002916  -0.003892   0.001867  -0.005295
    32  O   -0.002396  -0.000004  -0.000248   0.000029
    33  C   -0.049349  -0.002776   0.035630  -0.012406
    34  C    0.418973  -0.054005  -0.092249  -0.050831
    35  C   -0.052093   0.413206   0.394737   0.422429
    36  H   -0.028937  -0.003944  -0.002266   0.003611
    37  H    0.501625   0.003602  -0.002421  -0.003708
    38  H    0.003602   0.488120  -0.031344  -0.025113
    39  H   -0.002421  -0.031344   0.555773  -0.031478
    40  H   -0.003708  -0.025113  -0.031478   0.490941
 Mulliken charges:
               1
     1  C   -0.792207
     2  C   -0.313685
     3  C   -0.186812
     4  N   -0.739204
     5  C    0.683626
     6  O   -0.615314
     7  N   -0.622228
     8  C   -0.014856
     9  C   -0.239902
    10  C   -0.279581
    11  C   -0.242137
    12  C   -1.655770
    13  C    0.731117
    14  H    0.199332
    15  H    0.199699
    16  H    0.200524
    17  H    0.231679
    18  H    0.244085
    19  H    0.210049
    20  H    0.211275
    21  H    0.521267
    22  H    0.521375
    23  H    0.279041
    24  H    0.261350
    25  H    0.224504
    26  Cl   0.207831
    27  C    1.506623
    28  F   -0.273044
    29  F   -0.347994
    30  F   -0.275898
    31  O   -0.641362
    32  O   -0.667762
    33  C    0.632541
    34  C   -0.446219
    35  C   -0.733784
    36  H    0.209952
    37  H    0.211277
    38  H    0.215765
    39  H    0.172013
    40  H    0.212837
 Sum of Mulliken charges =  -1.00000
 Mulliken charges with hydrogens summed into heavy atoms:
               1
     1  C   -0.192652
     2  C    0.162079
     3  C    0.234512
     4  N   -0.217938
     5  C    0.683626
     6  O   -0.615314
     7  N   -0.100853
     8  C   -0.014856
     9  C    0.039139
    10  C   -0.018230
    11  C   -0.017633
    12  C   -1.655770
    13  C    0.731117
    26  Cl   0.207831
    27  C    1.506623
    28  F   -0.273044
    29  F   -0.347994
    30  F   -0.275898
    31  O   -0.641362
    32  O   -0.667762
    33  C    0.632541
    34  C   -0.024991
    35  C   -0.133169
 Electronic spatial extent (au):  <R**2>=          13183.5036
 Charge=             -1.0000 electrons
 Dipole moment (field-independent basis, Debye):
    X=             -2.0724    Y=             -0.1982    Z=             -0.0612  Tot=              2.0827
 Quadrupole moment (field-independent basis, Debye-Ang):
   XX=           -214.1962   YY=           -167.0791   ZZ=           -150.4489
   XY=            -12.5238   XZ=             -3.2961   YZ=             -1.9399
 Traceless Quadrupole moment (field-independent basis, Debye-Ang):
   XX=            -36.9548   YY=             10.1623   ZZ=             26.7925
   XY=            -12.5238   XZ=             -3.2961   YZ=             -1.9399
 Octapole moment (field-independent basis, Debye-Ang**2):
  XXX=            -49.2258  YYY=             28.8762  ZZZ=             -0.3233  XYY=            -67.7747
  XXY=            -55.0517  XXZ=            -28.6121  XZZ=            -27.7426  YZZ=             -1.0307
  YYZ=              9.8683  XYZ=             -4.7112
 Hexadecapole moment (field-independent basis, Debye-Ang**3):
 XXXX=         -14897.6771 YYYY=          -3874.5747 ZZZZ=           -330.9874 XXXY=           -192.8434
 XXXZ=           -132.0716 YYYX=            -75.1284 YYYZ=            -14.5373 ZZZX=             -1.6402
 ZZZY=             -1.4784 XXYY=          -3025.2772 XXZZ=          -2295.1816 YYZZ=           -672.8053
 XXYZ=            -45.0768 YYXZ=              6.7651 ZZXY=            -31.3474
 N-N= 2.079144694511D+03 E-N=-8.031811266588D+03  KE= 1.627488977887D+03
 Calling FoFJK, ICntrl=      2127 FMM=F ISym2X=0 I1Cent= 0 IOpClX= 0 NMat=1 NMatS=1 NMatT=0.
 ***** Axes restored to original set *****
 -------------------------------------------------------------------
 Center     Atomic                   Forces (Hartrees/Bohr)
 Number     Number              X              Y              Z
 -------------------------------------------------------------------
      1        6          -0.000197628   -0.000435452   -0.000094101
      2        6           0.000025624   -0.000572235    0.000703920
      3        6           0.006846317   -0.003000030    0.000506027
      4        7          -0.006790695   -0.002599173    0.000164220
      5        6          -0.001481582    0.023723547   -0.004608606
[...]
 000229,0.00006024,0.00004676,-0.00000296,0.00008560,-0.00001557,0.0000
 1084,-0.00003453,-0.00000705,0.00000875,0.00006215,0.00000394,0.000001
 11,-0.00004676,-0.00000753,0.00000150,-0.00000129,-0.00000384,-0.00000
 083,-0.00000495,0.00000568,-0.00000538,-0.00000613,0.00000837,0.000006
 88,0.00001031,-0.00000316,0.00002158,0.00001035,-0.00000640,-0.0000190
 2,-0.00000354,0.00001319,0.00000882,-0.00000446,0.00001022,-0.00000574
 ,-0.00000626,-0.00034058,0.00000201,-0.00001917,-0.00013607,0.00001663
 ,-0.00001408,-0.00000719,-0.00000220,-0.00003106,0.00003152,-0.0000311
 1,0.00001408,0.00000472,-0.00000575,0.00000594,0.00000183,0.00000069,-
 0.00007706,0.00001668,-0.00001869,0.00001569,-0.00000009,0.00000336,0.
 00002912,-0.00002496,0.00000552,0.00001890,0.00000478,0.00000955,0.000
 74473,0.00088196,-0.00010386,0.00180282,0.00064218,0.00132489,-0.00271
 273,-0.00275707,-0.00184281,-0.11770644,0.04572943,-0.22065206,0.00277
 258,-0.00103863,0.00353204,0.12945603,-0.04892612,0.23788746,0.0000038
 5,0.00000132,-0.00000766,0.00000152,-0.00001062,0.00003437,-0.00000870
 ,0.00000476,0.00000210,0.00008657,0.00020842,-0.00002735,-0.00022840,0
 .00000365,0.00001197,0.00006092,0.00001833,-0.00001058,0.00006232,-0.0
 0008206,0.00002619,0.00002766,0.00000251,0.00000646,-0.00000416,0.0000
 0147,-0.00000560,-0.00001158,0.00001165,-0.00000466,0.00001223,-0.0000
 0181,0.00000297,-0.00000532,-0.00000730,-0.00000391,0.00000040,0.00000
 508,0.00000097,0.00000772,-0.00000116,0.00000509,-0.00000429,0.0000100
 2,-0.00000626,-0.00000114,-0.00000019,0.00000121,-0.00000294,-0.000006
 57,0.00001014,0.00000072,-0.00001238,-0.00002554,0.00000059,0.00000161
 ,-0.00000035,0.00000208,0.00001093,-0.00000398,-0.00004032,-0.00027813
 ,-0.00000260,-0.00002545,0.00017842,-0.00007180,-0.00000349,-0.0000005
 4,0.00000226,0.00003232,-0.00000604,-0.00000250,-0.00000225,-0.0000016
 1,0.00000093,-0.00000174,-0.00000598,0.00000010,0.00001403,0.00000088,
 0.00000913,-0.00000288,-0.00000044,-0.00000219,-0.00000481,0.00000246,
 -0.00000180,-0.00000478,-0.00000326,-0.00000462,0.00042884,0.00195475,
 -0.00108689,0.00020215,-0.00170923,-0.00068769,-0.00413471,0.00176273,
 0.00331944,-0.11576966,0.04456107,0.10895844,-0.01516107,0.00985407,0.
 02361351,0.00950172,-0.00678232,-0.01459324,0.12813094,-0.00001536,-0.
 00001089,-0.00000184,0.00002075,0.00001396,0.00000266,-0.00011475,0.00
 003249,-0.00000880,-0.00019780,-0.00065610,-0.00001578,0.00049470,0.00
 014748,-0.00004240,-0.00012100,-0.00019271,0.00003775,-0.00024351,0.00
 004220,-0.00007172,0.00021105,0.00008202,-0.00000231,-0.00005076,-0.00
 004977,0.00001108,-0.00007643,0.00001187,0.00001108,0.00002084,0.00000
 814,0.00000790,-0.00005386,-0.00000554,0.00000251,0.00004204,0.0000125
 5,0.00000054,0.00001358,0.00000501,0.00000014,0.00000929,-0.00001042,0
 .00000578,0.00000781,-0.00000858,-0.00000387,-0.00001938,0.00000782,-0
 .00003212,-0.00002981,0.00001275,0.00002877,0.00001844,-0.00002192,-0.
 00000944,0.00001895,-0.00002390,0.00001274,0.00005452,0.00100869,0.000
 12250,0.00005216,0.00004719,0.00015317,0.00001527,0.00000656,-0.000003
 00,0.00003596,-0.00001185,-0.00003228,-0.00000926,-0.00000172,-0.00000
 652,-0.00000498,-0.00000557,0.00000042,0.00005687,0.00000095,-0.000017
 58,-0.00001565,-0.00000734,0.00001251,-0.00001762,0.00001243,0.0000026
 3,-0.00001261,-0.00000351,0.00000123,0.00160571,-0.00591129,0.00448198
 ,-0.00170519,0.00070757,0.00426427,0.01768575,-0.00828102,-0.03123370,
 0.04461363,-0.07587895,-0.07414279,-0.00926114,0.00524841,0.01412054,-
 0.00417691,0.00238272,0.00631814,-0.04710155,0.08169805,-0.00000794,-0
 .00000410,0.00000390,0.00000032,0.00001720,-0.00001654,-0.00001244,0.0
 0000733,-0.00000418,-0.00008901,-0.00015680,0.00004729,0.00021211,0.00
 007349,-0.00001035,-0.00004909,-0.00008427,0.00001001,-0.00018082,-0.0
 0009208,0.00002156,0.00020456,0.00006132,-0.00000366,-0.00005124,-0.00
 003867,0.00000039,-0.00007230,0.00001485,0.00000855,0.00003070,0.00000
 707,0.00000732,-0.00005298,-0.00000338,0.00000027,0.00003943,0.0000062
 9,0.00000134,-0.00000071,0.00000314,-0.00000157,0.00000500,-0.00000786
 ,0.00000675,0.00000286,-0.00000298,-0.00000391,-0.00000290,0.00000367,
 -0.00001161,-0.00000984,0.00000332,0.00001828,0.00000006,-0.00000456,-
 0.00000350,0.00000187,-0.00001102,0.00000705,-0.00000205,0.00018648,-0
 .00007588,0.00001206,0.00012575,-0.00002549,0.00001157,0.00000569,-0.0
 0000283,0.00002462,-0.00003190,-0.00002312,-0.00001206,-0.00000501,-0.
 00000484,-0.00000520,-0.00000146,0.00000092,0.00006861,-0.00001825,-0.
 00001432,-0.00001691,-0.00000281,0.00000886,-0.00002634,0.00002305,0.0
 0000172,-0.00001379,0.00000105,0.00000341,-0.00102245,-0.00003523,-0.0
 0061924,-0.00148691,-0.00049430,0.00085067,-0.00000035,0.00364059,0.00
 243302,0.10765410,-0.07084072,-0.21134496,-0.00052157,0.00032784,0.000
 21616,0.01407660,-0.00998946,-0.02238808,-0.11896505,0.07606732,0.2287
 2654,0.00000228,0.00000639,0.00000049,-0.00000593,-0.00000824,-0.00000
 220,0.00000410,0.00000498,0.00001345,0.00002663,0.00001274,-0.00002798
 ,-0.00009303,0.00001467,0.00001203,0.00002281,-0.00001940,-0.00000715,
 0.00002861,-0.00009879,-0.00001042,-0.00000365,-0.00000938,0.00000548,
 0.00000051,-0.00000564,-0.00000115,0.00000089,0.00001512,-0.00001552,0
 .00000663,0.00000111,-0.00000163,-0.00000328,-0.00001339,-0.00000149,-
 0.00000298,0.00001385,0.00000014,-0.00000653,0.00000102,-0.00000116,-0
 .00000138,-0.00000251,0.00000027,0.00000119,-0.00000463,-0.00000202,0.
 00000280,0.00000236,-0.00001345,0.00001420,0.00000595,0.00001632,0.000
 00178,-0.00000766,-0.00000190,-0.00000127,-0.00000197,-0.00000204,0.00
 000044,-0.00001421,0.00002482,0.00000038,0.00014587,0.00000183,-0.0000
 0225,-0.00000110,0.00000258,0.00001041,0.00001838,0.00001464,0.0000042
 6,0.00000298,0.00000374,-0.00000285,-0.00001501,0.00000016,0.00001923,
 0.00001887,0.00001332,-0.00000579,-0.00000530,0.00000045,-0.00000322,-
 0.00000558,-0.00000270,-0.00000858,-0.00000993,-0.00001095,0.00144090,
 -0.00036287,-0.00065265,0.00063988,-0.00044276,-0.00033512,-0.00133369
 ,0.00196523,0.00023203,-0.01623553,0.00975104,0.02548819,-0.11610518,0
 .04607901,0.10964266,0.00082991,0.00087318,-0.00038656,-0.00511836,-0.
 00350096,-0.00030797,0.12877045,0.00002032,0.00001413,-0.00001464,-0.0
 0000044,-0.00002881,0.00005173,0.00002717,-0.00001609,-0.00000709,0.00
 007256,0.00022000,-0.00002466,-0.00019619,-0.00011045,0.00000406,0.000
 04400,0.00011288,-0.00000850,0.00013818,0.00006319,-0.00000445,-0.0001
 4310,-0.00004476,0.00000178,0.00003579,0.00003825,-0.00000171,0.000046
 76,-0.00002097,-0.00000297,-0.00002500,-0.00000951,0.00000262,0.000042
 43,0.00001572,-0.00000160,-0.00002971,-0.00002400,0.00000329,-0.000006
 82,-0.00000747,0.00000070,-0.00001264,0.00001199,-0.00000751,-0.000005
 03,0.00000668,0.00000624,0.00000559,-0.00000303,0.00001527,0.00002407,
 -0.00001842,-0.00004025,-0.00000453,0.00001005,0.00000824,0.00000036,0
 .00001837,-0.00000891,0.00001200,-0.00032906,0.00003647,-0.00002540,-0
 .00012597,0.00001045,-0.00000840,-0.00000391,0.00000029,-0.00002134,-0
 .00000215,0.00000219,0.00000256,-0.00000080,-0.00000009,0.00000671,0.0
 0001899,-0.00000149,-0.00006946,-0.00001646,-0.00000210,0.00001920,0.0
 0001032,-0.00000917,0.00002013,-0.00000659,0.00000104,0.00001967,0.000
 01243,0.00001002,0.00059174,-0.00039459,-0.00044181,0.00075822,0.00017
 338,-0.00019042,-0.00145005,0.00052118,0.00093376,-0.00783787,0.005434
 48,0.01326782,0.04731967,-0.07769662,-0.07380920,0.00080000,0.00052824
 ,-0.00022775,-0.00315841,-0.00134501,0.00047060,-0.04877720,0.08120353
 ,-0.00000670,0.00000019,0.00001663,-0.00001631,0.00001747,-0.00006714,
 0.00006486,-0.00001119,0.00000950,-0.00010509,-0.00008925,0.00002947,0
 .00022298,0.00002354,-0.00000945,-0.00006245,-0.00001950,0.00000835,-0
 .00012090,0.00008754,0.00000646,0.00005965,0.00002772,-0.00000592,-0.0
 0001472,-0.00001353,0.00000269,-0.00001923,-0.00000446,0.00000596,0.00
 000125,0.00000212,0.00000101,-0.00001591,0.00000624,0.00000115,0.00001
 496,-0.00000508,-0.00000014,-0.00002091,0.00000401,-0.00000979,0.00000
 746,-0.00001894,0.00001212,0.00000176,-0.00000175,-0.00000479,0.000010
 52,0.00001004,-0.00001987,0.00000708,0.00003495,0.00005249,-0.00000976
 ,-0.00000004,-0.00000022,-0.00001495,-0.00001496,0.00000413,0.00000437
 ,0.00009837,-0.00003620,0.00001995,-0.00010432,-0.00000595,0.00000738,
 0.00000232,-0.00000198,-0.00000184,-0.00000618,-0.00000532,-0.00000416
 ,-0.00000113,-0.00000158,-0.00000017,0.00000729,0.00000002,0.00001354,
 -0.00001199,-0.00000805,-0.00000274,0.00000122,0.00000241,-0.00000644,
 0.00000864,0.00000109,-0.00000094,0.00000387,0.00000426,-0.00195845,-0
 .00003094,0.00071283,-0.00072917,0.00060172,-0.00008077,0.00224427,-0.
 00185944,0.00003287,0.00001354,0.00043866,-0.00059971,0.11001178,-0.07
 180886,-0.22159949,0.00022421,0.00042901,0.00071196,0.00002526,0.00010
 017,0.00153265,-0.12061290,0.08051909,0.23732726,0.00001004,0.00000841
 ,-0.00000141,0.00001493,-0.00002644,0.00000721,-0.00007086,0.00002638,
 -0.00000528,0.00009916,0.00004178,-0.00000014,-0.00027820,0.00003063,-
 0.00000352,0.00008068,-0.00006477,0.00000493,0.00004479,-0.00041697,0.
 00002846,0.00012861,0.00000497,0.00000105,-0.00003162,-0.00002496,0.00
 000129,-0.00004335,0.00004802,-0.00000414,0.00002768,-0.00000095,0.000
 00058,-0.00003229,-0.00002362,0.00000101,0.00001305,0.00001971,-0.0000
 0101,0.00001319,-0.00000318,0.00000107,-0.00000434,0.00000579,-0.00000
 539,-0.00000377,0.00000434,0.00000466,-0.00000618,-0.00001102,0.000021
 23,-0.00000551,-0.00001590,-0.00002338,0.00001400,-0.00000054,0.000000
 04,0.00001295,0.00000102,-0.00000011,-0.00002287,-0.00001817,0.0000013
 9,-0.00004226,0.00060942,-0.00004163,-0.00000151,-0.00000006,0.0000000
 4,0.00004728,0.00000769,0.00000005,-0.00000199,0.00000063,0.00000002,-
 0.00000740,-0.00002339,0.00000152,0.00006019,0.00001114,0.00000004,-0.
 00001713,-0.00000894,0.00000917,-0.00001797,0.00000558,-0.00000057,-0.
 00001709,-0.00001019,-0.00000838,0.00229848,0.00037497,-0.00006214,-0.
 00075762,-0.00364504,0.00029150,-0.00728354,0.00285805,-0.00006741,0.0
 0480603,-0.03298810,0.00245916,-0.05153365,0.03016034,-0.00234790,0.00
 111007,0.00076791,-0.00050107,0.00112829,0.00084878,0.00032271,-0.0024
 0568,0.01586080,-0.00335039,0.05504768,-0.00002300,-0.00000892,0.00000
 446,0.00000499,0.00002346,-0.00001415,-0.00011840,0.00005743,0.0000033
 7,-0.00003905,-0.00040896,0.00003549,0.00011729,0.00031161,-0.00001977
 ,-0.00001015,-0.00032624,0.00002153,-0.00025849,-0.00052120,0.00003502
 ,0.00042617,0.00009854,-0.00000291,-0.00010836,-0.00011368,0.00000654,
 -0.00014246,0.00009883,-0.00000791,0.00009326,0.00002679,-0.00000111,-
 0.00013162,-0.00007256,0.00000379,0.00008019,0.00009046,-0.00000528,0.
 00001543,0.00001377,-0.00000038,0.00001282,-0.00001891,0.00001273,0.00
 001090,-0.00001653,-0.00001154,-0.00001946,0.00001319,-0.00004163,-0.0
 0002937,0.00002036,0.00004629,0.00001926,-0.00002993,-0.00001817,0.000
 01758,-0.00003292,0.00001768,-0.00007062,0.00065083,-0.00005688,0.0000
 5062,0.00088691,-0.00006326,0.00001561,0.00000777,-0.00000042,0.000095
 24,0.00003303,-0.00000152,-0.00000167,0.00000545,-0.00000023,-0.000025
 58,-0.00008222,0.00000539,0.00024897,0.00006633,-0.00000190,-0.0000719
 8,-0.00004062,0.00003888,-0.00007193,0.00001739,-0.00000185,-0.0000716
 7,-0.00004574,-0.00003473,-0.00089084,-0.00109056,0.00016031,-0.001924
 60,-0.00277560,0.00024236,-0.00095009,0.00257131,-0.00012620,0.0040868
 6,-0.01335258,0.00087726,0.03001378,-0.30549044,0.01913452,-0.00019024
 ,0.00028810,-0.00059741,-0.00018891,0.00043719,0.00054984,0.00104836,-
 0.01000518,0.00121800,-0.03180207,0.33455571,0.00000186,0.00000062,0.0
 0001161,0.00000084,-0.00000017,-0.00004089,0.00000876,-0.00000524,0.00
 000449,0.00000163,0.00003395,0.00001890,-0.00000469,-0.00002603,-0.000
 00292,-0.00000054,0.00002767,-0.00000153,0.00001952,0.00004981,-0.0000
 0036,-0.00003597,-0.00000780,0.00000110,0.00000914,0.00000959,0.000000
 18,0.00001211,-0.00000891,-0.00000058,-0.00000788,-0.00000221,-0.00000
 134,0.00001101,0.00000618,-0.00000164,-0.00000652,-0.00000764,0.000000
 81,-0.00000054,-0.00000148,-0.00000300,0.00000122,-0.00000119,-0.00000
 012,-0.00000380,0.00000554,0.00000175,0.00000463,-0.00000973,0.0000191
 6,-0.00000229,0.00000397,0.00000069,0.00000084,0.00000707,0.00000200,-
 0.00000364,-0.00000035,-0.00000103,0.00000621,-0.00005344,-0.00001717,
 -0.00000303,-0.00008342,0.00000355,-0.00000120,-0.00000059,0.00000021,
 -0.00000850,-0.00000276,0.00000337,0.00000012,-0.00000036,0.00000157,0
 .00000218,0.00000706,-0.00000076,-0.00002083,-0.00000533,0.00000582,0.
 00000666,0.00000406,-0.00000554,0.00000597,-0.00000144,-0.00000107,0.0
 0000542,0.00000299,0.00000081,0.00005097,0.00014648,0.00071091,0.00017
 497,0.00029666,0.00000064,0.00022288,-0.00019895,0.00057318,-0.0004558
 2,0.00166678,-0.00120344,-0.00233373,0.01912776,-0.05233576,0.00015048
 ,-0.00038379,0.00005614,-0.00017052,0.00029186,-0.00009576,0.00155423,
 -0.02674791,0.00355515,0.00231705,-0.02161363,0.04935899,0.00000371,0.
 00000706,0.00000492,-0.00000544,-0.00001210,-0.00001876,0.00000111,0.0
 0000359,-0.00000636,0.00003489,0.00002478,0.00002719,-0.00011069,0.000
 00967,-0.00001512,0.00002715,-0.00001540,0.00000961,0.00003815,-0.0000
 9978,0.00002473,-0.00001022,-0.00001254,-0.00000474,0.00000203,-0.0000
 0400,0.00000249,0.00000278,0.00001695,0.00001400,0.00000645,0.00000123
 ,0.00000109,-0.00000176,-0.00001352,0.00000356,-0.00000426,0.00001419,
 -0.00000261,-0.00000558,0.00000108,-0.00000202,0.00000052,-0.00000573,
 0.00000199,-0.00000268,0.00000018,0.00000083,0.00001243,0.00000121,-0.
 00000613,0.00000408,0.00000471,0.00001680,0.00000077,0.00000016,0.0000
 0209,0.00000053,-0.00000709,0.00000109,0.00000045,-0.00002522,-0.00002
 266,-0.00000019,0.00014578,-0.00002206,-0.00000283,-0.00000166,-0.0000
 0237,0.00001003,0.00001672,-0.00001642,0.00000478,0.00000255,-0.000003
 95,-0.00000281,-0.00001554,0.00000191,0.00001834,0.00001805,-0.0000150
 3,-0.00000856,-0.00000855,0.00001194,-0.00000274,-0.00000595,0.0000033
 3,-0.00000573,-0.00000562,-0.00000010,0.00157085,-0.00023416,0.0006942
 2,0.00070377,-0.00041112,0.00037342,-0.00146972,0.00198198,-0.00051478
 ,-0.01734274,0.00571282,-0.02593555,-0.12628724,0.03077332,-0.12031468
 ,-0.00506556,-0.00337265,0.00114476,0.00083116,0.00090244,0.00024273,0
 .00951087,-0.00409636,0.01411932,-0.00237229,0.00078323,-0.00150920,0.
 13991619,0.00002277,0.00001545,0.00001001,0.00000501,-0.00002935,-0.00
 003713,0.00001266,-0.00001450,-0.00000090,0.00009114,0.00023663,-0.000
 00272,-0.00023388,-0.00011573,0.00000388,0.00005438,0.00011775,-0.0000
 0470,0.00015818,0.00005088,-0.00000044,-0.00015298,-0.00004947,0.00000
 127,0.00003832,0.00004058,-0.00000225,0.00004995,-0.00001977,0.0000074
 6,-0.00002516,-0.00001008,-0.00000150,0.00004501,0.00001495,-0.0000002
 6,-0.00003203,-0.00002361,-0.00000046,-0.00000232,-0.00000884,-0.00000
 121,-0.00000794,0.00001013,-0.00000810,-0.00001330,0.00001459,0.000008
 64,0.00001454,-0.00002069,0.00005706,0.00000867,-0.00001463,-0.0000357
 8,0.00000300,0.00002027,0.00000990,-0.00000180,0.00001354,-0.00000804,
 0.00001129,-0.00034680,0.00001618,-0.00002819,-0.00011215,0.00000642,-
 0.00000961,-0.00000434,-0.00000011,-0.00002149,-0.00000177,-0.00000293
 ,0.00000323,-0.00000064,-0.00000007,0.00000681,0.00001803,-0.00000087,
 -0.00007173,-0.00001464,0.00000170,0.00001997,0.00001056,-0.00001053,0
 .00002113,-0.00000789,0.00000058,0.00001959,0.00001145,0.00000855,0.00
 090064,-0.00033827,0.00055926,0.00088794,0.00011044,0.00013024,-0.0018
 2924,0.00064015,-0.00096632,-0.00827457,0.00322357,-0.01342917,0.03203
 527,-0.05901320,0.04755065,-0.00310832,-0.00135324,0.00012379,0.000764
 36,0.00050003,0.00022897,-0.00667459,0.00179603,-0.00964062,0.01738798
 ,-0.00584169,0.02747432,-0.03207471,0.06049632,0.00000285,-0.00000413,
 0.00000381,0.00001907,-0.00001025,-0.00001819,-0.00007205,0.00001205,-
 0.00000966,0.00009438,0.00006030,0.00001963,-0.00019117,-0.00001047,-0
 .00000901,0.00005520,0.00000568,0.00000720,0.00010036,-0.00008906,0.00
 001894,-0.00003911,-0.00002142,-0.00000423,0.00000961,0.00000868,0.000
 00115,0.00001243,0.00000717,0.00000487,0.00000205,-0.00000064,0.000001
 25,0.00001000,-0.00000757,0.00000197,-0.00001049,0.00000788,-0.0000007
 9,0.00002523,-0.00000372,-0.00000258,-0.00000270,0.00000753,-0.0000058
 4,-0.00000502,0.00001485,0.00000947,-0.00001253,-0.00002462,0.00004750
 ,-0.00001375,-0.00002380,-0.00003948,0.00001455,0.00001107,0.00000347,
 0.00001156,0.00000374,0.00000091,-0.00000626,-0.00005252,-0.00002077,-
 0.00001624,0.00011164,-0.00001881,-0.00000610,-0.00000192,-0.00000159,
 0.00000441,0.00000475,-0.00000489,0.00000360,0.00000086,-0.00000157,-0
 .00000067,-0.00000924,0.00000110,-0.00000424,0.00001227,-0.00000948,-0
 .00000160,-0.00000446,0.00000580,0.00000363,-0.00000718,0.00000217,0.0
 0000023,-0.00000229,0.00000146,0.00181306,0.00021981,0.00049670,0.0005
 7816,-0.00061002,-0.00004258,-0.00193676,0.00169568,-0.00001729,0.0020
 0380,-0.00130484,0.00270790,-0.12088274,0.04556347,-0.23036117,0.00075
 256,0.00050506,0.00148010,-0.00034572,-0.00043357,0.00074320,-0.014629
 88,0.00620658,-0.02157408,0.00094974,0.00020740,-0.00061810,0.13171053
 ,-0.05204475,0.24720147\\0.00000158,-0.00000107,-0.00000139,-0.0000008
 8,0.00000832,-0.00000064,-0.00000062,-0.00000452,-0.00000116,-0.000001
 79,-0.00000616,0.00000528,-0.00000597,0.00002241,-0.00000476,0.0000040
 6,-0.00001197,0.00000061,0.00001350,-0.00000599,-0.00000127,-0.0000024
 4,-0.00000868,0.00000147,0.00000392,0.00000539,0.00000272,-0.00000053,
 0.00000157,-0.00000295,-0.00000270,0.00000066,0.00000252,0.00000721,-0
 .00000003,-0.00000024,-0.00000692,-0.00000653,-0.00000224,-0.00000120,
 0.00000073,0.00000093,-0.00000055,0.00000045,0.00000040,-0.00000053,0.
 00000230,0.00000015,0.00000086,-0.00000072,0.,0.00000020,-0.00000108,-
 0.00000035,-0.00000097,0.00000077,-0.00000008,-0.00000131,0.00000149,0
 .00000033,-0.00000550,-0.00000441,0.00000041,-0.00000166,0.00000417,0.
 00000102,-0.00000005,-0.00000029,-0.00000083,-0.00000037,-0.00000077,0
 .00000116,0.00000039,-0.00000049,-0.00000017,0.00000241,0.00000204,0.0
 0000114,-0.00000518,0.00000395,-0.00000684,-0.00000264,-0.00000014,0.0
 0000620,0.00000634,-0.00001005,-0.00000023,-0.00000015,0.00000172,0.00
 000047,0.00000665,0.00001620,-0.00000200,0.00000499,0.00000132,-0.0000
 0231,-0.00000546,-0.00000904,0.00000306,-0.00000143,-0.00001110,-0.000
 00193,0.00000353,0.00000388,-0.00000010,-0.00000227,0.00000333,-0.0000
 0016,-0.00000185,0.00000283,0.00000187,-0.00000041,-0.00000065,0.00000
 002,-0.00000179,0.00000023,-0.00000008,-0.00000046,-0.00000008,-0.0000
 0002\\\@


 IF OTHER PEOPLE ARE GOING TO TALK, CONVERSATION IS SIMPLY IMPOSSIBLE.

                                               -- WHISTLER'S PRINCIPLE
 Job cpu time:       0 days  6 hours 25 minutes 29.4 seconds.
 File lengths (MBytes):  RWF=    984 Int=      0 D2E=      0 Chk=     18 Scr=      1
 Normal termination of Gaussian 09 at Tue Feb 19 19:26:59 2019.
WARNING: pbs_rusage is deprecated and values produced may not be accurate


=============================================================================
                                     Resource usage:
                                       CPU time:              24:57:08
   JobId:    5892226.r-man2            Elapsed time:          03:08:22
   Project:             q95            Requested time:        46:00:00
   Service Units:     25.12 
                                       Max physical memory:     1572MB
                                       Max virtual memory:      2922MB
                                       Requested memory:           0MB

                                       Number of cpus:               8

                                       Max jobfs disk use:       1.0GB
                                       Requested jobfs:         20.0GB
=============================================================================

