 Entering Gaussian System, Link 0=/apps/gaussian/g09e01/g09/g09
 AtFile(1): /home/507/hio507/Basis/6-31pGd.gbs
 Initial command:
 /apps/gaussian/g09e01/g09/l1.exe "/jobfs/local/1873687.r-man2/Gau-9374.inp" -scrdir="/jobfs/local/1873687.r-man2/"
 Entering Link 1 = /apps/gaussian/g09e01/g09/l1.exe PID=      9375.
  
 Copyright (c) 1988,1990,1992,1993,1995,1998,2003,2009,2015,
            Gaussian, Inc.  All Rights Reserved.
  
 This is part of the Gaussian(R) 09 program.  It is based on
 the Gaussian(R) 03 system (copyright 2003, Gaussian, Inc.),
 the Gaussian(R) 98 system (copyright 1998, Gaussian, Inc.),
 the Gaussian(R) 94 system (copyright 1995, Gaussian, Inc.),
 the Gaussian 92(TM) system (copyright 1992, Gaussian, Inc.),
 the Gaussian 90(TM) system (copyright 1990, Gaussian, Inc.),
 the Gaussian 88(TM) system (copyright 1988, Gaussian, Inc.),
 the Gaussian 86(TM) system (copyright 1986, Carnegie Mellon
 University), and the Gaussian 82(TM) system (copyright 1983,
 Carnegie Mellon University). Gaussian is a federally registered
 trademark of Gaussian, Inc.
  
 This software contains proprietary and confidential information,
 including trade secrets, belonging to Gaussian, Inc.
  
 This software is provided under written license and may be
 used, copied, transmitted, or stored only in accord with that
 written license.
  
 The following legend is applicable only to US Government
 contracts under FAR:
  
                    RESTRICTED RIGHTS LEGEND
  
 Use, reproduction and disclosure by the US Government is
 subject to restrictions as set forth in subparagraphs (a)
 and (c) of the Commercial Computer Software - Restricted
 Rights clause in FAR 52.227-19.
  
 Gaussian, Inc.
 340 Quinnipiac St., Bldg. 40, Wallingford CT 06492
  
  
 ---------------------------------------------------------------
 Warning -- This program may not be used in any manner that
 competes with the business of Gaussian, Inc. or will provide
 assistance to any competitor of Gaussian, Inc.  The licensee
 of this program is prohibited from giving any competitor of
 Gaussian, Inc. access to this program.  By using this program,
 the user acknowledges that Gaussian, Inc. is engaged in the
 business of creating and licensing software in the field of
 computational chemistry and represents and warrants to the
 licensee that it is not a competitor of Gaussian, Inc. and that
 it will not use this program in any manner prohibited above.
 ---------------------------------------------------------------
  

 Cite this work as:
 Gaussian 09, Revision E.01,
 M. J. Frisch, G. W. Trucks, H. B. Schlegel, G. E. Scuseria, 
 M. A. Robb, J. R. Cheeseman, G. Scalmani, V. Barone, B. Mennucci, 
 G. A. Petersson, H. Nakatsuji, M. Caricato, X. Li, H. P. Hratchian, 
 A. F. Izmaylov, J. Bloino, G. Zheng, J. L. Sonnenberg, M. Hada, 
 M. Ehara, K. Toyota, R. Fukuda, J. Hasegawa, M. Ishida, T. Nakajima, 
 Y. Honda, O. Kitao, H. Nakai, T. Vreven, J. A. Montgomery, Jr., 
 J. E. Peralta, F. Ogliaro, M. Bearpark, J. J. Heyd, E. Brothers, 
 K. N. Kudin, V. N. Staroverov, T. Keith, R. Kobayashi, J. Normand, 
 K. Raghavachari, A. Rendell, J. C. Burant, S. S. Iyengar, J. Tomasi, 
 M. Cossi, N. Rega, J. M. Millam, M. Klene, J. E. Knox, J. B. Cross, 
 V. Bakken, C. Adamo, J. Jaramillo, R. Gomperts, R. E. Stratmann, 
 O. Yazyev, A. J. Austin, R. Cammi, C. Pomelli, J. W. Ochterski, 
 R. L. Martin, K. Morokuma, V. G. Zakrzewski, G. A. Voth, 
 P. Salvador, J. J. Dannenberg, S. Dapprich, A. D. Daniels, 
 O. Farkas, J. B. Foresman, J. V. Ortiz, J. Cioslowski, 
 and D. J. Fox, Gaussian, Inc., Wallingford CT, 2013.
 
 ******************************************
 Gaussian 09:  ES64L-G09RevE.01 30-Nov-2015
                31-Oct-2018 
 ******************************************
 %chk=4SF5_a1.M062X_6-31pGd_opt.chk
 %mem=196608000
 %nproc=4
 Will use up to    4 processors via shared memory.
 ----------------------------------------------------------------------
 # M062X/Gen 6D SCF=Tight INT(grid=ultrafine) OPT IOP(2/17=4) maxdisk=2
 147483648
 ----------------------------------------------------------------------
 1/14=-1,18=20,19=15,26=4,38=1/1,3;
 2/9=110,12=2,17=4,18=5,40=1/2;
 3/5=7,8=2,11=2,16=1,25=1,30=1,71=1,74=-55,75=-5/1,2,3;
 4//1;
 5/5=2,32=2,38=5/2;
 6/7=2,8=2,9=2,10=2,28=1/1;
 7//1,2,3,16;
 1/14=-1,18=20,19=15,26=4/3(2);
 2/9=110,17=4/2;
 99//99;
 2/9=110,17=4/2;
 3/5=7,6=1,8=2,11=2,16=1,25=1,30=1,71=1,74=-55,75=-5,82=7/1,2,3;
 4/5=5,16=3,69=1/1;
 5/5=2,32=2,38=5/2;
 7//1,2,3,16;
 1/14=-1,18=20,19=15,26=4/3(-5);
 2/9=110,17=4/2;
 6/7=2,8=2,9=2,10=2,19=2,28=1/1;
 99/9=1/99;
 -------------------------
 4SF5_a1.M062X_6-31pGd_opt
 -------------------------
 Symbolic Z-matrix:
 Charge = -1 Multiplicity = 1
 C                    -2.0268    1.87875  -0.21852 
 C                    -0.71594   1.40888   0.40469 
 C                     0.47748   2.14856  -0.1825 
 N                     1.72002   1.67134   0.41129 
 C                     2.93574   2.14822  -0.0509 
 O                     2.94508   3.25095  -0.67043 
 N                     3.97756   1.33566   0.20341 
 C                     5.26162   1.79609   0.07787 
 C                     5.68109   3.14167   0.25699 
 C                     6.28277   0.84107  -0.16447 
 C                     7.61994   1.18967  -0.24712 
 C                     7.97876   2.52727  -0.07592 
 C                     7.01771   3.50329   0.18327 
 H                    -2.88158   1.3481    0.21181 
 H                    -2.03168   1.70352  -1.30016 
 H                    -2.17743   2.9512   -0.05114 
 H                    -0.59067   0.33093   0.23843 
 H                    -0.7389    1.5652    1.49014 
 H                     0.37776   3.22102   0.01277 
 H                     0.49053   2.01959  -1.27555 
 H                     1.73146   0.6848    0.64747 
 H                     4.94683   3.90716   0.47573 
 H                     5.99664  -0.19913  -0.29143 
 H                     8.36625   0.42633  -0.44321 
 S                     9.70242   2.99795  -0.18357 
 H                     7.30028   4.54055   0.33454 
 F                     9.96543   2.12337  -1.52397 
 F                     11.26802   3.42541  -0.28157 
 F                     9.39712   4.30322  -1.09609 
 F                     9.64      3.92708   1.14454 
 F                     10.20792   1.74741   0.71678 
 

 GradGradGradGradGradGradGradGradGradGradGradGradGradGradGradGradGradGrad
 Berny optimization.
 Initialization pass.
                           ----------------------------
                           !    Initial Parameters    !
                           ! (Angstroms and Degrees)  !
 --------------------------                            --------------------------
 ! Name  Definition              Value          Derivative Info.                !
 --------------------------------------------------------------------------------
 ! R1    R(1,2)                  1.5256         estimate D2E/DX2                !
 ! R2    R(1,14)                 1.0943         estimate D2E/DX2                !
 ! R3    R(1,15)                 1.0958         estimate D2E/DX2                !
 ! R4    R(1,16)                 1.0958         estimate D2E/DX2                !
 ! R5    R(2,3)                  1.5219         estimate D2E/DX2                !
 ! R6    R(2,17)                 1.0979         estimate D2E/DX2                !
 ! R7    R(2,18)                 1.0969         estimate D2E/DX2                !
 ! R8    R(3,4)                  1.4575         estimate D2E/DX2                !
 ! R9    R(3,19)                 1.0946         estimate D2E/DX2                !
 ! R10   R(3,20)                 1.1007         estimate D2E/DX2                !
 ! R11   R(4,5)                  1.3853         estimate D2E/DX2                !
 ! R12   R(4,21)                 1.0145         estimate D2E/DX2                !
 ! R13   R(5,6)                  1.2649         estimate D2E/DX2                !
 ! R14   R(5,7)                  1.3455         estimate D2E/DX2                !
 ! R15   R(7,8)                  1.3699         estimate D2E/DX2                !
 ! R16   R(8,9)                  1.4208         estimate D2E/DX2                !
 ! R17   R(8,10)                 1.419          estimate D2E/DX2                !
 ! R18   R(9,13)                 1.3866         estimate D2E/DX2                !
 ! R19   R(9,22)                 1.083          estimate D2E/DX2                !
 ! R20   R(10,11)                1.3843         estimate D2E/DX2                !
 ! R21   R(10,23)                1.0863         estimate D2E/DX2                !
 ! R22   R(11,12)                1.3954         estimate D2E/DX2                !
 ! R23   R(11,24)                1.0854         estimate D2E/DX2                !
 ! R24   R(12,13)                1.3941         estimate D2E/DX2                !
 ! R25   R(12,25)                1.79           estimate D2E/DX2                !
 ! R26   R(13,26)                1.0856         estimate D2E/DX2                !
 ! R27   R(25,27)                1.622          estimate D2E/DX2                !
 ! R28   R(25,28)                1.6259         estimate D2E/DX2                !
 ! R29   R(25,29)                1.6216         estimate D2E/DX2                !
 ! R30   R(25,30)                1.6221         estimate D2E/DX2                !
 ! R31   R(25,31)                1.6217         estimate D2E/DX2                !
 ! A1    A(2,1,14)             111.1725         estimate D2E/DX2                !
 ! A2    A(2,1,15)             110.9652         estimate D2E/DX2                !
 ! A3    A(2,1,16)             110.924          estimate D2E/DX2                !
 ! A4    A(14,1,15)            107.8885         estimate D2E/DX2                !
 ! A5    A(14,1,16)            107.8877         estimate D2E/DX2                !
 ! A6    A(15,1,16)            107.8589         estimate D2E/DX2                !
 ! A7    A(1,2,3)              111.4983         estimate D2E/DX2                !
 ! A8    A(1,2,17)             109.7908         estimate D2E/DX2                !
 ! A9    A(1,2,18)             110.0204         estimate D2E/DX2                !
 ! A10   A(3,2,17)             109.2263         estimate D2E/DX2                !
 ! A11   A(3,2,18)             109.2051         estimate D2E/DX2                !
 ! A12   A(17,2,18)            106.9887         estimate D2E/DX2                !
 ! A13   A(2,3,4)              110.6213         estimate D2E/DX2                !
 ! A14   A(2,3,19)             109.6278         estimate D2E/DX2                !
 ! A15   A(2,3,20)             109.6022         estimate D2E/DX2                !
 ! A16   A(4,3,19)             109.013          estimate D2E/DX2                !
 ! A17   A(4,3,20)             110.8613         estimate D2E/DX2                !
 ! A18   A(19,3,20)            107.0395         estimate D2E/DX2                !
 ! A19   A(3,4,5)              119.969          estimate D2E/DX2                !
 ! A20   A(3,4,21)             115.0164         estimate D2E/DX2                !
 ! A21   A(5,4,21)             113.7369         estimate D2E/DX2                !
 ! A22   A(4,5,6)              118.035          estimate D2E/DX2                !
 ! A23   A(4,5,7)              114.1152         estimate D2E/DX2                !
 ! A24   A(6,5,7)              127.833          estimate D2E/DX2                !
 ! A25   A(5,7,8)              120.3641         estimate D2E/DX2                !
 ! A26   A(7,8,9)              125.6978         estimate D2E/DX2                !
 ! A27   A(7,8,10)             117.6447         estimate D2E/DX2                !
 ! A28   A(9,8,10)             116.5175         estimate D2E/DX2                !
 ! A29   A(8,9,13)             121.6598         estimate D2E/DX2                !
 ! A30   A(8,9,22)             119.6495         estimate D2E/DX2                !
 ! A31   A(13,9,22)            118.6803         estimate D2E/DX2                !
 ! A32   A(8,10,11)            122.4003         estimate D2E/DX2                !
 ! A33   A(8,10,23)            118.3518         estimate D2E/DX2                !
 ! A34   A(11,10,23)           119.2477         estimate D2E/DX2                !
 ! A35   A(10,11,12)           118.844          estimate D2E/DX2                !
 ! A36   A(10,11,24)           119.8578         estimate D2E/DX2                !
 ! A37   A(12,11,24)           121.2981         estimate D2E/DX2                !
 ! A38   A(11,12,13)           121.1084         estimate D2E/DX2                !
 ! A39   A(11,12,25)           119.49           estimate D2E/DX2                !
 ! A40   A(13,12,25)           119.401          estimate D2E/DX2                !
 ! A41   A(9,13,12)            119.4602         estimate D2E/DX2                !
 ! A42   A(9,13,26)            119.5146         estimate D2E/DX2                !
 ! A43   A(12,13,26)           121.024          estimate D2E/DX2                !
 ! A44   A(12,25,27)            93.6733         estimate D2E/DX2                !
 ! A45   A(12,25,29)            93.6813         estimate D2E/DX2                !
 ! A46   A(12,25,30)            93.688          estimate D2E/DX2                !
 ! A47   A(12,25,31)            93.6692         estimate D2E/DX2                !
 ! A48   A(27,25,28)            86.3193         estimate D2E/DX2                !
 ! A49   A(27,25,29)            89.9719         estimate D2E/DX2                !
 ! A50   A(27,25,31)            89.5684         estimate D2E/DX2                !
 ! A51   A(28,25,29)            86.3161         estimate D2E/DX2                !
 ! A52   A(28,25,30)            86.3194         estimate D2E/DX2                !
 ! A53   A(28,25,31)            86.3335         estimate D2E/DX2                !
 ! A54   A(29,25,30)            89.5667         estimate D2E/DX2                !
 ! A55   A(30,25,31)            89.9499         estimate D2E/DX2                !
 ! A56   L(12,25,28,27,-1)     179.9926         estimate D2E/DX2                !
 ! A57   L(27,25,30,12,-1)     187.3613         estimate D2E/DX2                !
 ! A58   L(29,25,31,12,-1)     187.3505         estimate D2E/DX2                !
 ! A59   L(12,25,28,27,-2)     179.9973         estimate D2E/DX2                !
 ! A60   L(27,25,30,12,-2)     179.9891         estimate D2E/DX2                !
 ! A61   L(29,25,31,12,-2)     180.011          estimate D2E/DX2                !
 ! D1    D(14,1,2,3)          -179.6457         estimate D2E/DX2                !
 ! D2    D(14,1,2,17)           59.1647         estimate D2E/DX2                !
 ! D3    D(14,1,2,18)          -58.3266         estimate D2E/DX2                !
 ! D4    D(15,1,2,3)            60.2773         estimate D2E/DX2                !
 ! D5    D(15,1,2,17)          -60.9123         estimate D2E/DX2                !
 ! D6    D(15,1,2,18)         -178.4036         estimate D2E/DX2                !
 ! D7    D(16,1,2,3)           -59.5973         estimate D2E/DX2                !
 ! D8    D(16,1,2,17)          179.2131         estimate D2E/DX2                !
 ! D9    D(16,1,2,18)           61.7218         estimate D2E/DX2                !
 ! D10   D(1,2,3,4)           -179.1544         estimate D2E/DX2                !
 ! D11   D(1,2,3,19)            60.5966         estimate D2E/DX2                !
 ! D12   D(1,2,3,20)           -56.6134         estimate D2E/DX2                !
 ! D13   D(17,2,3,4)           -57.6365         estimate D2E/DX2                !
 ! D14   D(17,2,3,19)         -177.8855         estimate D2E/DX2                !
 ! D15   D(17,2,3,20)           64.9045         estimate D2E/DX2                !
 ! D16   D(18,2,3,4)            59.0534         estimate D2E/DX2                !
 ! D17   D(18,2,3,19)          -61.1955         estimate D2E/DX2                !
 ! D18   D(18,2,3,20)         -178.4055         estimate D2E/DX2                !
 ! D19   D(2,3,4,5)            175.5005         estimate D2E/DX2                !
 ! D20   D(2,3,4,21)            34.0697         estimate D2E/DX2                !
 ! D21   D(19,3,4,5)           -63.8836         estimate D2E/DX2                !
 ! D22   D(19,3,4,21)          154.6856         estimate D2E/DX2                !
 ! D23   D(20,3,4,5)            53.6972         estimate D2E/DX2                !
 ! D24   D(20,3,4,21)          -87.7337         estimate D2E/DX2                !
 ! D25   D(3,4,5,6)             21.0761         estimate D2E/DX2                !
 ! D26   D(3,4,5,7)           -157.5511         estimate D2E/DX2                !
 ! D27   D(21,4,5,6)           162.9655         estimate D2E/DX2                !
 ! D28   D(21,4,5,7)           -15.6617         estimate D2E/DX2                !
 ! D29   D(4,5,7,8)           -165.4785         estimate D2E/DX2                !
 ! D30   D(6,5,7,8)             16.0557         estimate D2E/DX2                !
 ! D31   D(5,7,8,9)             28.7242         estimate D2E/DX2                !
 ! D32   D(5,7,8,10)          -155.7429         estimate D2E/DX2                !
 ! D33   D(7,8,9,13)           176.2914         estimate D2E/DX2                !
 ! D34   D(7,8,9,22)            -2.5144         estimate D2E/DX2                !
 ! D35   D(10,8,9,13)            0.7137         estimate D2E/DX2                !
 ! D36   D(10,8,9,22)         -178.0921         estimate D2E/DX2                !
 ! D37   D(7,8,10,11)         -176.9947         estimate D2E/DX2                !
 ! D38   D(7,8,10,23)            3.1783         estimate D2E/DX2                !
 ! D39   D(9,8,10,11)           -1.0482         estimate D2E/DX2                !
 ! D40   D(9,8,10,23)          179.1247         estimate D2E/DX2                !
 ! D41   D(8,9,13,12)            0.1518         estimate D2E/DX2                !
 ! D42   D(8,9,13,26)         -179.4561         estimate D2E/DX2                !
 ! D43   D(22,9,13,12)         178.9688         estimate D2E/DX2                !
 ! D44   D(22,9,13,26)          -0.6391         estimate D2E/DX2                !
 ! D45   D(8,10,11,12)           0.4989         estimate D2E/DX2                !
 ! D46   D(8,10,11,24)        -179.4374         estimate D2E/DX2                !
 ! D47   D(23,10,11,12)       -179.6756         estimate D2E/DX2                !
 ! D48   D(23,10,11,24)          0.3882         estimate D2E/DX2                !
 ! D49   D(10,11,12,13)          0.4303         estimate D2E/DX2                !
 ! D50   D(10,11,12,25)       -179.8396         estimate D2E/DX2                !
 ! D51   D(24,11,12,13)       -179.6344         estimate D2E/DX2                !
 ! D52   D(24,11,12,25)          0.0957         estimate D2E/DX2                !
 ! D53   D(11,12,13,9)          -0.7498         estimate D2E/DX2                !
 ! D54   D(11,12,13,26)        178.852          estimate D2E/DX2                !
 ! D55   D(25,12,13,9)         179.5198         estimate D2E/DX2                !
 ! D56   D(25,12,13,26)         -0.8784         estimate D2E/DX2                !
 ! D57   D(11,12,25,27)         45.5691         estimate D2E/DX2                !
 ! D58   D(11,12,25,29)        135.7776         estimate D2E/DX2                !
 ! D59   D(11,12,25,30)       -134.4199         estimate D2E/DX2                !
 ! D60   D(11,12,25,31)        -44.2334         estimate D2E/DX2                !
 ! D61   D(13,12,25,27)       -134.6961         estimate D2E/DX2                !
 ! D62   D(13,12,25,29)        -44.4876         estimate D2E/DX2                !
 ! D63   D(13,12,25,30)         45.3148         estimate D2E/DX2                !
 ! D64   D(13,12,25,31)        135.5014         estimate D2E/DX2                !
 --------------------------------------------------------------------------------
 Trust Radius=3.00D-01 FncErr=1.00D-07 GrdErr=1.00D-06
 Number of steps in this run=    166 maximum allowed number of steps=    186.
 GradGradGradGradGradGradGradGradGradGradGradGradGradGradGradGradGradGrad

                          Input orientation:                          
 ---------------------------------------------------------------------
 Center     Atomic      Atomic             Coordinates (Angstroms)
 Number     Number       Type             X           Y           Z
 ---------------------------------------------------------------------
      1          6           0       -2.026801    1.878754   -0.218520
      2          6           0       -0.715942    1.408875    0.404692
      3          6           0        0.477481    2.148562   -0.182504
      4          7           0        1.720016    1.671342    0.411288
      5          6           0        2.935743    2.148220   -0.050903
      6          8           0        2.945084    3.250948   -0.670426
      7          7           0        3.977557    1.335657    0.203407
      8          6           0        5.261617    1.796088    0.077868
      9          6           0        5.681087    3.141666    0.256986
     10          6           0        6.282768    0.841068   -0.164472
     11          6           0        7.619945    1.189667   -0.247121
     12          6           0        7.978757    2.527271   -0.075915
     13          6           0        7.017712    3.503289    0.183265
     14          1           0       -2.881583    1.348098    0.211812
     15          1           0       -2.031675    1.703517   -1.300163
     16          1           0       -2.177429    2.951202   -0.051141
     17          1           0       -0.590665    0.330926    0.238432
     18          1           0       -0.738902    1.565205    1.490141
     19          1           0        0.377757    3.221016    0.012771
     20          1           0        0.490525    2.019587   -1.275551
     21          1           0        1.731460    0.684796    0.647466
     22          1           0        4.946830    3.907156    0.475728
     23          1           0        5.996637   -0.199134   -0.291427
     24          1           0        8.366253    0.426330   -0.443215
     25         16           0        9.702416    2.997949   -0.183573
     26          1           0        7.300278    4.540549    0.334535
     27          9           0        9.965430    2.123374   -1.523974
     28          9           0       11.268017    3.425410   -0.281575
     29          9           0        9.397117    4.303219   -1.096094
     30          9           0        9.640003    3.927082    1.144539
     31          9           0       10.207915    1.747409    0.716778
 ---------------------------------------------------------------------
                    Distance matrix (angstroms):
                    1          2          3          4          5
     1  C    0.000000
     2  C    1.525625   0.000000
     3  C    2.519032   1.521904   0.000000
     4  N    3.805038   2.450065   1.457471   0.000000
     5  C    4.972681   3.753532   2.461783   1.385289   0.000000
     6  O    5.177526   4.237006   2.746341   2.272895   1.264874
     7  N    6.043617   4.698384   3.613901   2.291810   1.345478
     8  C    7.294911   5.998997   4.804164   3.559449   2.355901
     9  C    7.825126   6.629205   5.315725   4.227973   2.935753
    10  C    8.374285   7.044735   5.950733   4.673282   3.595013
    11  C    9.671368   8.364204   7.206834   5.956062   4.785297
    12  C   10.027567   8.779497   7.511586   6.335758   5.057301
    13  C    9.198031   8.015298   6.689073   5.610135   4.307380
    14  H    1.094272   2.175063   3.475562   4.617248   5.877967
    15  H    1.095757   2.173591   2.782641   4.123746   5.141367
    16  H    1.095833   2.173131   2.776694   4.128190   5.175839
    17  H    2.160339   1.097866   2.149866   2.676908   3.977666
    18  H    2.162526   1.096889   2.148868   2.687278   4.027125
    19  H    2.763524   2.152588   1.094639   2.088532   2.774570
    20  H    2.733877   2.156791   1.100708   2.116211   2.737773
    21  H    4.037325   2.563787   2.098553   1.014487   2.019809
    22  H    7.295747   6.189785   4.847783   3.926238   2.723172
    23  H    8.288456   6.937506   5.998719   4.720380   3.864841
    24  H   10.496456   9.174454   8.078786   6.815622   5.710451
    25  S   11.782545  10.555254   9.263957   8.113721   6.821107
    26  H    9.715217   8.606514   7.248414   6.275155   4.992090
    27  F   12.065557  10.877590   9.582347   8.481535   7.182413
    28  F   13.384630  12.171797  10.866270   9.732479   8.432746
    29  F   11.711280  10.625608   9.221557   8.254506   6.890994
    30  F   11.923418  10.683367   9.427406   8.267540   7.038503
    31  F   12.271117  10.933556   9.780132   8.493736   7.323556
                    6          7          8          9         10
     6  O    0.000000
     7  N    2.344766   0.000000
     8  C    2.835999   1.369879   0.000000
     9  C    2.890978   2.483255   1.420781   0.000000
    10  C    4.147728   2.386199   1.418993   2.415036   0.000000
    11  C    5.126636   3.673047   2.456639   2.797069   1.384339
    12  C    5.120060   4.184204   2.818000   2.401581   2.393220
    13  C    4.168785   3.733842   2.451431   1.386641   2.783610
    14  H    6.192675   6.859157   8.156613   8.748614   9.186076
    15  H    5.249689   6.205394   7.422914   7.998731   8.435850
    16  H    5.168510   6.368566   7.529298   7.866860   8.720117
    17  H    4.674834   4.677539   6.035039   6.872807   6.904105
    18  H    4.591463   4.894218   6.168797   6.724742   7.250239
    19  H    2.656844   4.068106   5.087902   5.309543   6.369044
    20  H    2.811989   3.848957   4.964374   5.527175   6.014439
    21  H    3.129674   2.380286   3.744520   4.667788   4.625805
    22  H    2.398180   2.761568   2.171172   1.083031   3.405213
    23  H    4.621546   2.584014   2.158135   3.400188   1.086283
    24  H    6.117121   4.528316   3.433151   3.882454   2.142572
    25  S    6.779571   5.973858   4.607984   4.047942   4.043080
    26  H    4.651961   4.618333   3.428422   2.141183   3.869172
    27  F    7.161371   6.281637   4.979846   4.750193   4.129716
    28  F    8.333838   7.599544   6.233837   5.619995   5.616515
    29  F    6.551122   6.314013   4.976570   4.121761   4.749061
    30  F    6.969448   6.297976   4.984895   4.132510   4.744261
    31  F    7.545442   6.265018   4.987629   4.758943   4.123692
                   11         12         13         14         15
    11  C    0.000000
    12  C    1.395437   0.000000
    13  C    2.429150   1.394056   0.000000
    14  H   10.512744  10.927955  10.131224   0.000000
    15  H    9.722484  10.118602   9.345114   1.770518   0.000000
    16  H    9.956402  10.165059   9.214682   1.770570   1.771446
    17  H    8.269662   8.851991   8.243442   2.506721   2.515510
    18  H    8.545726   8.909303   8.101183   2.504464   3.078342
    19  H    7.526168   7.633109   6.648139   3.764403   3.135596
    20  H    7.250866   7.600689   6.850817   3.746233   2.542047
    21  H    5.977411   6.553375   6.008648   4.680804   4.358008
    22  H    3.879794   3.376532   2.130069   8.240295   7.530561
    23  H    2.136787   3.377652   3.869867   9.026072   8.312125
    24  H    1.085408   2.167721   3.417414  11.304535  10.511064
    25  S    2.758734   1.790008   2.756370  12.697849  11.857960
    26  H    3.415980   2.163813   1.085649  10.671321   9.889709
    27  F    2.829040   2.491361   3.675306  12.986907  12.006536
    28  F    4.278804   3.415872   4.276357  14.309781  13.449321
    29  F    3.684197   2.491285   2.817484  12.696843  11.722516
    30  F    3.675704   2.491730   2.824899  12.818394  12.130494
    31  F    2.817405   2.491123   3.680373  13.105319  12.404739
                   16         17         18         19         20
    16  H    0.000000
    17  H    3.076933   0.000000
    18  H    2.523073   1.764141   0.000000
    19  H    2.570186   3.056368   2.484202   0.000000
    20  H    3.079784   2.512507   3.060557   1.765198   0.000000
    21  H    4.572095   2.384281   2.754616   2.944107   2.649449
    22  H    7.207392   6.596179   6.232280   4.643441   5.146702
    23  H    8.763430   6.629802   7.187097   6.584967   6.017349
    24  H   10.848867   8.983325   9.377566   8.475510   8.078263
    25  S   11.880675  10.641364  10.671232   9.329393   9.327837
    26  H    9.617780   8.944112   8.649654   7.054502   7.437766
    27  F   12.259835  10.851272  11.134594   9.771893   9.478729
    28  F   13.455779  12.266808  12.278658  10.896154  10.914149
    29  F   11.699999  10.831245  10.813150   9.151481   9.196443
    30  F   11.917788  10.882092  10.649862   9.357811   9.654445
    31  F   12.467380  10.901586  10.975614   9.964896   9.923262
                   21         22         23         24         25
    21  H    0.000000
    22  H    4.555404   0.000000
    23  H    4.455849   4.307231   0.000000
    24  H    6.728809   4.965184   2.455468   0.000000
    25  S    8.341310   4.886403   4.895485   2.909634   0.000000
    26  H    6.780597   2.441279   4.955391   4.320647   2.901433
    27  F    8.636141   5.689203   4.760728   2.570091   1.621954
    28  F    9.965942   6.384590   6.397254   4.176223   1.625864
    29  F    8.654207   4.736301   5.699293   4.064382   1.621614
    30  F    8.561808   4.740630   5.688741   4.049527   1.622056
    31  F    8.543082   5.692243   4.747670   2.546086   1.621731
                   26         27         28         29         30
    26  H    0.000000
    27  F    4.049670   0.000000
    28  F    4.167262   2.221618   0.000000
    29  F    2.549462   2.292987   2.221319   0.000000
    30  F    2.550835   3.237319   2.221690   2.284931   0.000000
    31  F    4.049949   2.284977   2.221758   3.236675   2.292701
                   31
    31  F    0.000000
 Stoichiometry    C10H12F5N2OS(1-)
 Framework group  C1[X(C10H12F5N2OS)]
 Deg. of freedom    87
 Full point group                 C1      NOp   1
 Largest Abelian subgroup         C1      NOp   1
 Largest concise Abelian subgroup C1      NOp   1
                         Standard orientation:                         
 ---------------------------------------------------------------------
 Center     Atomic      Atomic             Coordinates (Angstroms)
 Number     Number       Type             X           Y           Z
 ---------------------------------------------------------------------
      1          6           0       -8.080406   -0.360556    0.263618
      2          6           0       -6.843529    0.295113   -0.342819
      3          6           0       -5.562829   -0.338750    0.180837
      4          7           0       -4.394096    0.314497   -0.394968
      5          6           0       -3.123478   -0.048323    0.020867
      6          8           0       -2.977116   -1.179850    0.566880
      7          7           0       -2.185758    0.892793   -0.191956
      8          6           0       -0.855546    0.575509   -0.111753
      9          6           0       -0.289412   -0.699006   -0.383272
     10          6           0        0.054926    1.623914    0.180526
     11          6           0        1.424380    1.426313    0.224618
     12          6           0        1.929504    0.152248   -0.037777
     13          6           0        1.080803   -0.909016   -0.348932
     14          1           0       -8.997983    0.094917   -0.121127
     15          1           0       -8.084547   -0.256143    1.354382
     16          1           0       -8.111380   -1.430378    0.028307
     17          1           0       -6.838383    1.367554   -0.107970
     18          1           0       -6.869258    0.206497   -1.435820
     19          1           0       -5.543770   -1.400971   -0.082902
     20          1           0       -5.543698   -0.278872    1.279749
     21          1           0       -4.499308    1.308859   -0.566312
     22          1           0       -0.935983   -1.528137   -0.642970
     23          1           0       -0.345056    2.614285    0.378491
     24          1           0        2.082734    2.256130    0.461438
     25         16           0        3.697213   -0.123678    0.018786
     26          1           0        1.476447   -1.895331   -0.570925
     27          9           0        3.884656    0.688294    1.410296
     28          9           0        5.302822   -0.374260    0.070381
     29          9           0        3.559623   -1.510684    0.847590
     30          9           0        3.715467   -0.967529   -1.366367
     31          9           0        4.040121    1.231239   -0.803786
 ---------------------------------------------------------------------
 Rotational constants (GHZ):      1.3884149      0.1014964      0.0990748
 General basis read from cards:  (6D, 7F)
 There are   389 symmetry adapted cartesian basis functions of A   symmetry.
 There are   389 symmetry adapted basis functions of A   symmetry.
   389 basis functions,   680 primitive gaussians,   389 cartesian basis functions
    78 alpha electrons       78 beta electrons
       nuclear repulsion energy      1692.7528235741 Hartrees.
 NAtoms=   31 NActive=   31 NUniq=   31 SFac= 1.00D+00 NAtFMM=   60 NAOKFM=F Big=F
 Integral buffers will be    131072 words long.
 Raffenetti 2 integral format.
 Two-electron integral symmetry is turned on.
 One-electron integrals computed using PRISM.
 NBasis=   389 RedAO= T EigKep=  1.33D-06  NBF=   389
 NBsUse=   389 1.00D-06 EigRej= -1.00D+00 NBFU=   389
 ExpMin= 4.05D-02 ExpMax= 2.19D+04 ExpMxC= 3.30D+03 IAcc=3 IRadAn=         5 AccDes= 0.00D+00
 Harris functional with IExCor= 1009 and IRadAn=       5 diagonalized for initial guess.
 HarFok:  IExCor= 1009 AccDes= 0.00D+00 IRadAn=         5 IDoV= 1 UseB2=F ITyADJ=14
 ICtDFT=  3500011 ScaDFX=  1.000000  1.000000  1.000000  1.000000
 FoFCou: FMM=F IPFlag=           0 FMFlag=      100000 FMFlg1=           0
         NFxFlg=           0 DoJE=T BraDBF=F KetDBF=T FulRan=T
         wScrn=  0.000000 ICntrl=     500 IOpCl=  0 I1Cent=   200000004 NGrid=           0
         NMat0=    1 NMatS0=      1 NMatT0=    0 NMatD0=    1 NMtDS0=    0 NMtDT0=    0
 Petite list used in FoFCou.
 Requested convergence on RMS density matrix=1.00D-08 within 128 cycles.
 Requested convergence on MAX density matrix=1.00D-06.
 Requested convergence on             energy=1.00D-06.
 No special actions if energy rises.
 SCF Done:  E(RM062X) =  -1469.99048176     A.U. after   19 cycles
            NFock= 19  Conv=0.43D-08     -V/T= 2.0068

 **********************************************************************

            Population analysis using the SCF density.

 **********************************************************************

 Orbital symmetries:
       Occupied  (A) (A) (A) (A) (A) (A) (A) (A) (A) (A) (A) (A)
                 (A) (A) (A) (A) (A) (A) (A) (A) (A) (A) (A) (A)
                 (A) (A) (A) (A) (A) (A) (A) (A) (A) (A) (A) (A)
                 (A) (A) (A) (A) (A) (A) (A) (A) (A) (A) (A) (A)
                 (A) (A) (A) (A) (A) (A) (A) (A) (A) (A) (A) (A)
                 (A) (A) (A) (A) (A) (A) (A) (A) (A) (A) (A) (A)
                 (A) (A) (A) (A) (A) (A)
       Virtual   (A) (A) (A) (A) (A) (A) (A) (A) (A) (A) (A) (A)
                 (A) (A) (A) (A) (A) (A) (A) (A) (A) (A) (A) (A)
                 (A) (A) (A) (A) (A) (A) (A) (A) (A) (A) (A) (A)
                 (A) (A) (A) (A) (A) (A) (A) (A) (A) (A) (A) (A)
                 (A) (A) (A) (A) (A) (A) (A) (A) (A) (A) (A) (A)
                 (A) (A) (A) (A) (A) (A) (A) (A) (A) (A) (A) (A)
                 (A) (A) (A) (A) (A) (A) (A) (A) (A) (A) (A) (A)
                 (A) (A) (A) (A) (A) (A) (A) (A) (A) (A) (A) (A)
                 (A) (A) (A) (A) (A) (A) (A) (A) (A) (A) (A) (A)
                 (A) (A) (A) (A) (A) (A) (A) (A) (A) (A) (A) (A)
                 (A) (A) (A) (A) (A) (A) (A) (A) (A) (A) (A) (A)
                 (A) (A) (A) (A) (A) (A) (A) (A) (A) (A) (A) (A)
                 (A) (A) (A) (A) (A) (A) (A) (A) (A) (A) (A) (A)
                 (A) (A) (A) (A) (A) (A) (A) (A) (A) (A) (A) (A)
                 (A) (A) (A) (A) (A) (A) (A) (A) (A) (A) (A) (A)
                 (A) (A) (A) (A) (A) (A) (A) (A) (A) (A) (A) (A)
                 (A) (A) (A) (A) (A) (A) (A) (A) (A) (A) (A) (A)
                 (A) (A) (A) (A) (A) (A) (A) (A) (A) (A) (A) (A)
                 (A) (A) (A) (A) (A) (A) (A) (A) (A) (A) (A) (A)
                 (A) (A) (A) (A) (A) (A) (A) (A) (A) (A) (A) (A)
                 (A) (A) (A) (A) (A) (A) (A) (A) (A) (A) (A) (A)
                 (A) (A) (A) (A) (A) (A) (A) (A) (A) (A) (A) (A)
                 (A) (A) (A) (A) (A) (A) (A) (A) (A) (A) (A) (A)
                 (A) (A) (A) (A) (A) (A) (A) (A) (A) (A) (A) (A)
                 (A) (A) (A) (A) (A) (A) (A) (A) (A) (A) (A) (A)
                 (A) (A) (A) (A) (A) (A) (A) (A) (A) (A) (A)
 The electronic state is 1-A.
 Alpha  occ. eigenvalues --  -90.20634 -25.19015 -25.18976 -25.18914 -25.18906
 Alpha  occ. eigenvalues --  -25.18860 -19.44423 -14.63665 -14.57389 -10.50856
 Alpha  occ. eigenvalues --  -10.46593 -10.46518 -10.46161 -10.46036 -10.45856
 Alpha  occ. eigenvalues --  -10.45031 -10.44801 -10.42381 -10.41971  -8.49349
 Alpha  occ. eigenvalues --   -6.41773  -6.41750  -6.41276  -1.37424  -1.27795
 Alpha  occ. eigenvalues --   -1.27670  -1.24800  -1.23436  -0.99292  -0.88323
 Alpha  occ. eigenvalues --   -0.86961  -0.84134  -0.79877  -0.78432  -0.72939
 Alpha  occ. eigenvalues --   -0.70739  -0.66875  -0.61697  -0.61390  -0.61312
 Alpha  occ. eigenvalues --   -0.58336  -0.57587  -0.54418  -0.51993  -0.51075
 Alpha  occ. eigenvalues --   -0.50113  -0.49638  -0.47034  -0.46278  -0.45302
 Alpha  occ. eigenvalues --   -0.43951  -0.43283  -0.43271  -0.42978  -0.42384
 Alpha  occ. eigenvalues --   -0.41192  -0.40715  -0.40354  -0.39553  -0.39397
 Alpha  occ. eigenvalues --   -0.38958  -0.38083  -0.37426  -0.36840  -0.34550
 Alpha  occ. eigenvalues --   -0.33978  -0.32648  -0.32178  -0.31056  -0.30565
 Alpha  occ. eigenvalues --   -0.29633  -0.28469  -0.23566  -0.19731  -0.18881
 Alpha  occ. eigenvalues --   -0.17521  -0.15409  -0.10625
 Alpha virt. eigenvalues --    0.09309   0.09542   0.11092   0.12500   0.12916
 Alpha virt. eigenvalues --    0.13123   0.13178   0.13677   0.13998   0.14149
 Alpha virt. eigenvalues --    0.14437   0.14728   0.15421   0.15943   0.16151
 Alpha virt. eigenvalues --    0.16400   0.16933   0.17548   0.18353   0.18822
 Alpha virt. eigenvalues --    0.19368   0.20598   0.21033   0.21385   0.22130
 Alpha virt. eigenvalues --    0.22931   0.23384   0.23853   0.24136   0.24656
 Alpha virt. eigenvalues --    0.25022   0.25855   0.26595   0.26901   0.27685
 Alpha virt. eigenvalues --    0.27936   0.28707   0.29088   0.29395   0.29917
 Alpha virt. eigenvalues --    0.30143   0.31125   0.32212   0.32257   0.32631
 Alpha virt. eigenvalues --    0.33400   0.33753   0.34091   0.34467   0.35006
 Alpha virt. eigenvalues --    0.35244   0.35660   0.35860   0.36246   0.36809
 Alpha virt. eigenvalues --    0.37248   0.38250   0.38701   0.38913   0.39407
 Alpha virt. eigenvalues --    0.39756   0.40362   0.40769   0.41411   0.41796
 Alpha virt. eigenvalues --    0.41916   0.42314   0.42780   0.43306   0.43468
 Alpha virt. eigenvalues --    0.43715   0.44173   0.44463   0.44841   0.45264
 Alpha virt. eigenvalues --    0.45583   0.46121   0.46796   0.47346   0.48147
 Alpha virt. eigenvalues --    0.48668   0.49272   0.49507   0.49993   0.50063
 Alpha virt. eigenvalues --    0.50731   0.50950   0.51631   0.52013   0.52905
 Alpha virt. eigenvalues --    0.53111   0.53561   0.54439   0.56316   0.57217
 Alpha virt. eigenvalues --    0.58182   0.59338   0.59905   0.60859   0.61007
 Alpha virt. eigenvalues --    0.61220   0.63512   0.65007   0.66854   0.68680
 Alpha virt. eigenvalues --    0.69046   0.69136   0.69592   0.71540   0.72813
 Alpha virt. eigenvalues --    0.77450   0.77468   0.78962   0.80042   0.82122
 Alpha virt. eigenvalues --    0.83877   0.84748   0.85860   0.87022   0.87831
 Alpha virt. eigenvalues --    0.88841   0.89694   0.90924   0.92955   0.93758
 Alpha virt. eigenvalues --    0.94433   0.95629   0.95985   0.97683   0.98044
 Alpha virt. eigenvalues --    0.98601   1.00984   1.02295   1.03482   1.04617
 Alpha virt. eigenvalues --    1.05424   1.06990   1.08032   1.08428   1.09231
 Alpha virt. eigenvalues --    1.11384   1.12018   1.12167   1.13050   1.13472
 Alpha virt. eigenvalues --    1.14766   1.15253   1.17173   1.18515   1.18595
 Alpha virt. eigenvalues --    1.19670   1.21059   1.22999   1.24262   1.24765
 Alpha virt. eigenvalues --    1.25219   1.25891   1.27162   1.27790   1.28480
 Alpha virt. eigenvalues --    1.30102   1.32789   1.35889   1.38040   1.39851
 Alpha virt. eigenvalues --    1.42410   1.43058   1.44276   1.47425   1.48040
 Alpha virt. eigenvalues --    1.50394   1.52725   1.54458   1.56669   1.57587
 Alpha virt. eigenvalues --    1.59261   1.59503   1.60655   1.62008   1.62726
 Alpha virt. eigenvalues --    1.62996   1.64187   1.64845   1.67412   1.67999
 Alpha virt. eigenvalues --    1.68735   1.70388   1.71659   1.71937   1.74568
 Alpha virt. eigenvalues --    1.75549   1.76062   1.80180   1.81182   1.83664
 Alpha virt. eigenvalues --    1.84495   1.86906   1.87498   1.89091   1.89455
 Alpha virt. eigenvalues --    1.89679   1.91327   1.91730   1.95041   1.95374
 Alpha virt. eigenvalues --    1.95710   1.95919   1.97083   1.99235   1.99808
 Alpha virt. eigenvalues --    2.00241   2.00532   2.01403   2.01590   2.01761
 Alpha virt. eigenvalues --    2.01942   2.03525   2.05348   2.07051   2.08254
 Alpha virt. eigenvalues --    2.08283   2.09150   2.10668   2.12243   2.12993
 Alpha virt. eigenvalues --    2.13293   2.13578   2.15054   2.15777   2.16935
 Alpha virt. eigenvalues --    2.17411   2.17786   2.17953   2.18383   2.18502
 Alpha virt. eigenvalues --    2.19107   2.20028   2.21256   2.22208   2.25294
 Alpha virt. eigenvalues --    2.25949   2.27198   2.27848   2.30043   2.30291
 Alpha virt. eigenvalues --    2.30767   2.31936   2.33535   2.34432   2.36760
 Alpha virt. eigenvalues --    2.37928   2.39155   2.40998   2.41636   2.43854
 Alpha virt. eigenvalues --    2.45421   2.46964   2.48215   2.50062   2.50970
 Alpha virt. eigenvalues --    2.53075   2.54667   2.55331   2.59562   2.62421
 Alpha virt. eigenvalues --    2.64107   2.70412   2.72996   2.73547   2.74510
 Alpha virt. eigenvalues --    2.77557   2.81453   2.83317   2.85851   2.89394
 Alpha virt. eigenvalues --    2.90318   2.91779   2.93470   2.94959   2.99408
 Alpha virt. eigenvalues --    3.02079   3.04859   3.06608   3.09928   3.12533
 Alpha virt. eigenvalues --    3.16142   3.22516   3.25875   3.36263   3.47611
 Alpha virt. eigenvalues --    3.50873   3.57515   4.29991   4.36322   4.41399
 Alpha virt. eigenvalues --    4.45200   4.48181   4.50257   4.52076   4.55817
 Alpha virt. eigenvalues --    4.57074   4.61672   4.67316   4.69162   4.77717
 Alpha virt. eigenvalues --    4.92105   6.04200   6.09727   6.27027   7.46778
 Alpha virt. eigenvalues --    8.98230
          Condensed to atoms (all electrons):
               1          2          3          4          5          6
     1  C    5.681458  -0.073585  -0.053918   0.003924  -0.019895   0.003646
     2  C   -0.073585   6.427698  -0.570261  -0.036660   0.064910   0.016270
     3  C   -0.053918  -0.570261   6.771653   0.177912  -0.291880  -0.036475
     4  N    0.003924  -0.036660   0.177912   7.977100  -0.003739  -0.226613
     5  C   -0.019895   0.064910  -0.291880  -0.003739   7.032000   0.537133
     6  O    0.003646   0.016270  -0.036475  -0.226613   0.537133   8.555941
     7  N    0.008407  -0.035604   0.053306  -0.511647   0.264079  -0.141736
     8  C   -0.008251   0.007898  -0.260854  -0.034529  -0.643614  -0.192964
     9  C    0.004662   0.014634  -0.017663   0.074079   1.080902   0.147973
    10  C   -0.006937  -0.018835  -0.043216  -0.203587  -1.370942  -0.133573
    11  C    0.000139  -0.002314   0.011322  -0.007730   0.214494   0.046474
    12  C   -0.000222   0.001222  -0.034361   0.012244  -0.729240  -0.014193
    13  C   -0.000865   0.006200  -0.052271   0.185544  -0.642681   0.096314
    14  H    0.415409  -0.096584   0.033309   0.000715  -0.001448   0.000005
    15  H    0.420711  -0.059887  -0.011768   0.000144  -0.001204  -0.000016
    16  H    0.416735  -0.054122  -0.014512   0.000107  -0.000235  -0.000087
    17  H   -0.043137   0.450476  -0.091397   0.004777  -0.006568  -0.000436
    18  H   -0.036035   0.415333  -0.060852   0.001909  -0.003332   0.000038
    19  H   -0.016466   0.004788   0.366737  -0.015623  -0.009089  -0.005502
    20  H    0.015940  -0.136771   0.510347  -0.123379   0.006357   0.007952
    21  H    0.005196   0.017459  -0.089032   0.258005   0.044411   0.009976
    22  H    0.000017  -0.000170   0.000668   0.000905   0.005925  -0.008090
    23  H    0.000002   0.000009  -0.000373  -0.000571  -0.008488   0.000060
    24  H   -0.000000  -0.000000   0.000013   0.000013   0.001206  -0.000004
    25  S   -0.000006   0.000071  -0.001237   0.002426  -0.075714  -0.000795
    26  H   -0.000000   0.000000  -0.000056  -0.000015  -0.004213   0.000194
    27  F   -0.000000   0.000000  -0.000004   0.000006  -0.001370  -0.000004
    28  F    0.000000   0.000000   0.000000   0.000000  -0.000022   0.000000
    29  F   -0.000000   0.000000   0.000003   0.000007  -0.000690   0.000005
    30  F   -0.000000  -0.000000  -0.000008   0.000002  -0.001451  -0.000010
    31  F   -0.000000   0.000000  -0.000006   0.000003  -0.001470  -0.000001
               7          8          9         10         11         12
     1  C    0.008407  -0.008251   0.004662  -0.006937   0.000139  -0.000222
     2  C   -0.035604   0.007898   0.014634  -0.018835  -0.002314   0.001222
     3  C    0.053306  -0.260854  -0.017663  -0.043216   0.011322  -0.034361
     4  N   -0.511647  -0.034529   0.074079  -0.203587  -0.007730   0.012244
     5  C    0.264079  -0.643614   1.080902  -1.370942   0.214494  -0.729240
     6  O   -0.141736  -0.192964   0.147973  -0.133573   0.046474  -0.014193
     7  N    7.612885   0.630086  -0.154282  -0.059337  -0.006769   0.024519
     8  C    0.630086  14.982636   1.267174  -7.077574   2.907197  -5.949754
     9  C   -0.154282   1.267174  19.720507  -5.881986   0.601670  -2.037801
    10  C   -0.059337  -7.077574  -5.881986  23.403022  -5.291483   3.054028
    11  C   -0.006769   2.907197   0.601670  -5.291483  25.976139  -5.735714
    12  C    0.024519  -5.949754  -2.037801   3.054028  -5.735714  23.398327
    13  C   -0.200100   0.940680  -8.670627  -1.001279 -12.757202  -4.739161
    14  H    0.000011  -0.000038  -0.000009   0.000002   0.000000  -0.000000
    15  H    0.000059  -0.000032   0.000028  -0.000022  -0.000000  -0.000000
    16  H   -0.000036   0.000069  -0.000067   0.000023   0.000000  -0.000000
    17  H   -0.002674  -0.001232  -0.000646   0.000677   0.000019   0.000008
    18  H    0.001390  -0.000871   0.000578  -0.000431   0.000001  -0.000006
    19  H   -0.012039  -0.002064   0.005292  -0.000586  -0.000108   0.000224
    20  H    0.017591  -0.000996  -0.002957  -0.000824   0.000132  -0.000243
    21  H    0.009742   0.002331   0.010317  -0.018852  -0.001478   0.000119
    22  H   -0.004610  -0.100250   0.324531   0.015241   0.005974   0.115993
    23  H   -0.009117   0.073551   0.050769   0.278401  -0.142603   0.063348
    24  H    0.000804  -0.037449  -0.040492  -0.089065   0.343344   0.044448
    25  S    0.005668  -0.427376  -1.113417   0.404313  -0.157328  -0.377945
    26  H   -0.000611  -0.020552  -0.141701  -0.028749   0.022183   0.018662
    27  F    0.000078  -0.037105   0.012586   0.045887   0.093790  -0.060296
    28  F    0.000000   0.006882  -0.020321  -0.003812   0.079429  -0.252586
    29  F    0.000028  -0.016839  -0.022776   0.042741  -0.224742  -0.073860
    30  F    0.000035  -0.011907  -0.047094   0.034111  -0.147570  -0.008817
    31  F    0.000077  -0.022600   0.005923   0.031069   0.142646  -0.045858
              13         14         15         16         17         18
     1  C   -0.000865   0.415409   0.420711   0.416735  -0.043137  -0.036035
     2  C    0.006200  -0.096584  -0.059887  -0.054122   0.450476   0.415333
     3  C   -0.052271   0.033309  -0.011768  -0.014512  -0.091397  -0.060852
     4  N    0.185544   0.000715   0.000144   0.000107   0.004777   0.001909
     5  C   -0.642681  -0.001448  -0.001204  -0.000235  -0.006568  -0.003332
     6  O    0.096314   0.000005  -0.000016  -0.000087  -0.000436   0.000038
     7  N   -0.200100   0.000011   0.000059  -0.000036  -0.002674   0.001390
     8  C    0.940680  -0.000038  -0.000032   0.000069  -0.001232  -0.000871
     9  C   -8.670627  -0.000009   0.000028  -0.000067  -0.000646   0.000578
    10  C   -1.001279   0.000002  -0.000022   0.000023   0.000677  -0.000431
    11  C  -12.757202   0.000000  -0.000000   0.000000   0.000019   0.000001
    12  C   -4.739161  -0.000000  -0.000000  -0.000000   0.000008  -0.000006
    13  C   32.750898  -0.000000   0.000001  -0.000004  -0.000013   0.000026
    14  H   -0.000000   0.518941  -0.028022  -0.027771  -0.003020  -0.002885
    15  H    0.000001  -0.028022   0.504066  -0.030903  -0.004798   0.003989
    16  H   -0.000004  -0.027771  -0.030903   0.503643   0.004254  -0.004767
    17  H   -0.000013  -0.003020  -0.004798   0.004254   0.537062  -0.037494
    18  H    0.000026  -0.002885   0.003989  -0.004767  -0.037494   0.509818
    19  H    0.002079  -0.000088  -0.000217   0.002770   0.004463  -0.006234
    20  H   -0.001883  -0.000057   0.002572  -0.000511  -0.006782   0.004619
    21  H   -0.002516  -0.000002   0.000003   0.000000   0.002267  -0.000189
    22  H   -0.054226  -0.000000   0.000000  -0.000000  -0.000000   0.000000
    23  H   -0.002627  -0.000000   0.000000  -0.000000  -0.000000   0.000000
    24  H    0.042642  -0.000000   0.000000   0.000000   0.000000  -0.000000
    25  S    0.685756  -0.000000  -0.000000   0.000000   0.000000  -0.000000
    26  H    0.421552  -0.000000   0.000000  -0.000000  -0.000000   0.000000
    27  F   -0.198245  -0.000000  -0.000000   0.000000   0.000000  -0.000000
    28  F    0.086752  -0.000000   0.000000   0.000000   0.000000   0.000000
    29  F    0.176164  -0.000000  -0.000000   0.000000   0.000000  -0.000000
    30  F    0.117030  -0.000000  -0.000000   0.000000   0.000000  -0.000000
    31  F   -0.204347  -0.000000  -0.000000   0.000000   0.000000  -0.000000
              19         20         21         22         23         24
     1  C   -0.016466   0.015940   0.005196   0.000017   0.000002  -0.000000
     2  C    0.004788  -0.136771   0.017459  -0.000170   0.000009  -0.000000
     3  C    0.366737   0.510347  -0.089032   0.000668  -0.000373   0.000013
     4  N   -0.015623  -0.123379   0.258005   0.000905  -0.000571   0.000013
     5  C   -0.009089   0.006357   0.044411   0.005925  -0.008488   0.001206
     6  O   -0.005502   0.007952   0.009976  -0.008090   0.000060  -0.000004
     7  N   -0.012039   0.017591   0.009742  -0.004610  -0.009117   0.000804
     8  C   -0.002064  -0.000996   0.002331  -0.100250   0.073551  -0.037449
     9  C    0.005292  -0.002957   0.010317   0.324531   0.050769  -0.040492
    10  C   -0.000586  -0.000824  -0.018852   0.015241   0.278401  -0.089065
    11  C   -0.000108   0.000132  -0.001478   0.005974  -0.142603   0.343344
    12  C    0.000224  -0.000243   0.000119   0.115993   0.063348   0.044448
    13  C    0.002079  -0.001883  -0.002516  -0.054226  -0.002627   0.042642
    14  H   -0.000088  -0.000057  -0.000002  -0.000000  -0.000000  -0.000000
    15  H   -0.000217   0.002572   0.000003   0.000000   0.000000   0.000000
    16  H    0.002770  -0.000511   0.000000  -0.000000  -0.000000   0.000000
    17  H    0.004463  -0.006782   0.002267  -0.000000  -0.000000   0.000000
    18  H   -0.006234   0.004619  -0.000189   0.000000   0.000000  -0.000000
    19  H    0.506946  -0.043807   0.003081   0.000000  -0.000000   0.000000
    20  H   -0.043807   0.558270   0.001304  -0.000001   0.000000  -0.000000
    21  H    0.003081   0.001304   0.367610   0.000004   0.000007  -0.000000
    22  H    0.000000  -0.000001   0.000004   0.473430  -0.000127   0.000014
    23  H   -0.000000   0.000000   0.000007  -0.000127   0.510848  -0.004426
    24  H    0.000000  -0.000000  -0.000000   0.000014  -0.004426   0.497811
    25  S    0.000006  -0.000006   0.000005   0.002423  -0.000375   0.026842
    26  H   -0.000000   0.000000   0.000000  -0.004172   0.000015  -0.000143
    27  F    0.000000  -0.000000   0.000000   0.000022   0.000002   0.002446
    28  F   -0.000000   0.000000   0.000000  -0.000001  -0.000001   0.000081
    29  F    0.000000  -0.000000  -0.000000   0.000006   0.000020   0.000306
    30  F    0.000000  -0.000000   0.000000   0.000037   0.000020   0.000277
    31  F    0.000000  -0.000000   0.000000   0.000023  -0.000007   0.002397
              25         26         27         28         29         30
     1  C   -0.000006  -0.000000  -0.000000   0.000000  -0.000000  -0.000000
     2  C    0.000071   0.000000   0.000000   0.000000   0.000000  -0.000000
     3  C   -0.001237  -0.000056  -0.000004   0.000000   0.000003  -0.000008
     4  N    0.002426  -0.000015   0.000006   0.000000   0.000007   0.000002
     5  C   -0.075714  -0.004213  -0.001370  -0.000022  -0.000690  -0.001451
     6  O   -0.000795   0.000194  -0.000004   0.000000   0.000005  -0.000010
     7  N    0.005668  -0.000611   0.000078   0.000000   0.000028   0.000035
     8  C   -0.427376  -0.020552  -0.037105   0.006882  -0.016839  -0.011907
     9  C   -1.113417  -0.141701   0.012586  -0.020321  -0.022776  -0.047094
    10  C    0.404313  -0.028749   0.045887  -0.003812   0.042741   0.034111
    11  C   -0.157328   0.022183   0.093790   0.079429  -0.224742  -0.147570
    12  C   -0.377945   0.018662  -0.060296  -0.252586  -0.073860  -0.008817
    13  C    0.685756   0.421552  -0.198245   0.086752   0.176164   0.117030
    14  H   -0.000000  -0.000000  -0.000000  -0.000000  -0.000000  -0.000000
    15  H   -0.000000   0.000000  -0.000000   0.000000  -0.000000  -0.000000
    16  H    0.000000  -0.000000   0.000000   0.000000   0.000000   0.000000
    17  H    0.000000  -0.000000   0.000000   0.000000   0.000000   0.000000
    18  H   -0.000000   0.000000  -0.000000   0.000000  -0.000000  -0.000000
    19  H    0.000006  -0.000000   0.000000  -0.000000   0.000000   0.000000
    20  H   -0.000006   0.000000  -0.000000   0.000000  -0.000000  -0.000000
    21  H    0.000005   0.000000   0.000000   0.000000  -0.000000   0.000000
    22  H    0.002423  -0.004172   0.000022  -0.000001   0.000006   0.000037
    23  H   -0.000375   0.000015   0.000002  -0.000001   0.000020   0.000020
    24  H    0.026842  -0.000143   0.002446   0.000081   0.000306   0.000277
    25  S   14.860030   0.026150  -0.021379   0.123448  -0.033183  -0.072584
    26  H    0.026150   0.494930   0.000285   0.000077   0.002097   0.002237
    27  F   -0.021379   0.000285   9.785104  -0.032888  -0.006235  -0.067556
    28  F    0.123448   0.000077  -0.032888   9.632724  -0.032583  -0.032805
    29  F   -0.033183   0.002097  -0.006235  -0.032583   9.775950  -0.020934
    30  F   -0.072584   0.002237  -0.067556  -0.032805  -0.020934   9.768117
    31  F   -0.058647   0.000299  -0.016424  -0.033201  -0.068425  -0.010448
              31
     1  C   -0.000000
     2  C    0.000000
     3  C   -0.000006
     4  N    0.000003
     5  C   -0.001470
     6  O   -0.000001
     7  N    0.000077
     8  C   -0.022600
     9  C    0.005923
    10  C    0.031069
    11  C    0.142646
    12  C   -0.045858
    13  C   -0.204347
    14  H   -0.000000
    15  H   -0.000000
    16  H    0.000000
    17  H    0.000000
    18  H   -0.000000
    19  H    0.000000
    20  H   -0.000000
    21  H    0.000000
    22  H    0.000023
    23  H   -0.000007
    24  H    0.002397
    25  S   -0.058647
    26  H    0.000299
    27  F   -0.016424
    28  F   -0.033201
    29  F   -0.068425
    30  F   -0.010448
    31  F    9.781198
 Mulliken charges:
               1
     1  C   -0.716928
     2  C   -0.342177
     3  C   -0.295126
     4  N   -0.535728
     5  C    0.565868
     6  O   -0.661483
     7  N   -0.490202
     8  C    0.028344
     9  C    0.830214
    10  C   -0.078426
    11  C    0.030088
    12  C   -0.673086
    13  C   -0.983591
    14  H    0.191531
    15  H    0.205298
    16  H    0.205414
    17  H    0.194191
    18  H    0.215396
    19  H    0.215438
    20  H    0.193132
    21  H    0.380231
    22  H    0.226432
    23  H    0.191663
    24  H    0.208935
    25  S    2.202858
    26  H    0.211528
    27  F   -0.498701
    28  F   -0.521174
    29  F   -0.497060
    30  F   -0.500681
    31  F   -0.502200
 Sum of Mulliken charges =  -1.00000
 Mulliken charges with hydrogens summed into heavy atoms:
               1
     1  C   -0.114685
     2  C    0.067410
     3  C    0.113444
     4  N   -0.155497
     5  C    0.565868
     6  O   -0.661483
     7  N   -0.490202
     8  C    0.028344
     9  C    1.056646
    10  C    0.113238
    11  C    0.239023
    12  C   -0.673086
    13  C   -0.772063
    25  S    2.202858
    27  F   -0.498701
    28  F   -0.521174
    29  F   -0.497060
    30  F   -0.500681
    31  F   -0.502200
 Electronic spatial extent (au):  <R**2>=          10258.5167
 Charge=             -1.0000 electrons
 Dipole moment (field-independent basis, Debye):
    X=              0.4132    Y=              1.3404    Z=             -0.6487  Tot=              1.5454
 Quadrupole moment (field-independent basis, Debye-Ang):
   XX=           -174.1765   YY=           -124.6504   ZZ=           -127.5324
   XY=             -4.3428   XZ=              1.7938   YZ=              4.5227
 Traceless Quadrupole moment (field-independent basis, Debye-Ang):
   XX=            -32.0567   YY=             17.4694   ZZ=             14.5874
   XY=             -4.3428   XZ=              1.7938   YZ=              4.5227
 Octapole moment (field-independent basis, Debye-Ang**2):
  XXX=             76.3392  YYY=             -5.7156  ZZZ=              4.2712  XYY=             54.5410
  XXY=             28.8538  XXZ=             -4.7578  XZZ=             44.3574  YZZ=             -4.0347
  YYZ=             -2.1655  XYZ=             -6.9447
 Hexadecapole moment (field-independent basis, Debye-Ang**3):
 XXXX=         -13234.3216 YYYY=           -688.8612 ZZZZ=           -367.0269 XXXY=           -118.4101
 XXXZ=             39.7602 YYYX=            -25.2334 YYYZ=             17.1776 ZZZX=             -4.7642
 ZZZY=             -2.3043 XXYY=          -2160.6628 XXZZ=          -2126.0311 YYZZ=           -187.0891
 XXYZ=             31.6984 YYXZ=             17.7876 ZZXY=            -10.8027
 N-N= 1.692752823574D+03 E-N=-6.868515883276D+03  KE= 1.460087770783D+03
 Calling FoFJK, ICntrl=      2127 FMM=F ISym2X=0 I1Cent= 0 IOpClX= 0 NMat=1 NMatS=1 NMatT=0.
 ***** Axes restored to original set *****
 -------------------------------------------------------------------
 Center     Atomic                   Forces (Hartrees/Bohr)
 Number     Number              X              Y              Z
 -------------------------------------------------------------------
      1        6          -0.001146962   -0.001230508    0.000426017
      2        6           0.000560216    0.001216081    0.000055834
      3        6           0.007678741   -0.001854896    0.002314005
      4        7          -0.016125478   -0.006575380    0.003826034
      5        6           0.013203595    0.030787603   -0.016900991
      6        8          -0.003643144   -0.017169115    0.011880806
      7        7           0.010062894   -0.003441485    0.000553374
      8        6          -0.017641096   -0.005329821    0.001863835
      9        6           0.004076269    0.005137420    0.000597041
     10        6           0.005128927   -0.001605419   -0.000190117
     11        6          -0.003498410   -0.000553872    0.000382508
     12        6           0.005740704    0.000620541   -0.000494608
     13        6          -0.005147267   -0.001536022    0.000583952
     14        1          -0.001134956   -0.000014997   -0.000079943
     15        1           0.000017242    0.000400122   -0.000076544
     16        1           0.000236129    0.000010629   -0.000264011
     17        1          -0.000734368   -0.000969254    0.000122262
     18        1           0.000449604   -0.000350645    0.000326822
     19        1           0.001681755    0.000566568   -0.000810398
     20        1          -0.000293947    0.001086558   -0.001394029
     21        1           0.002696291    0.001133231   -0.000426166
     22        1          -0.002075878   -0.001233973   -0.002219059
     23        1          -0.001876538    0.000694650    0.000247208
     24        1           0.000790861    0.001012345    0.000011902
     25       16          -0.009193576   -0.001343880   -0.000124545
     26        1           0.000922320   -0.000534097   -0.000226883
     27        9           0.002159174   -0.001272794   -0.001637143
     28        9           0.001966854    0.000386001   -0.000043405
     29        9           0.001245161    0.001979255   -0.000667221
     30        9           0.001434679    0.001796018    0.001437708
     31        9           0.002460203   -0.001810865    0.000925757
 -------------------------------------------------------------------
 Cartesian Forces:  Max     0.030787603 RMS     0.005690484

 GradGradGradGradGradGradGradGradGradGradGradGradGradGradGradGradGradGrad
 Berny optimization.
 FormGI is forming the generalized inverse of G from B-inverse, IUseBI=4.
 Internal  Forces:  Max     0.020814250 RMS     0.002700455
 Search for a local minimum.
 Step number   1 out of a maximum of  166
 All quantities printed in internal units (Hartrees-Bohrs-Radians)
 Mixed Optimization -- RFO/linear search
 Second derivative matrix not updated -- first step.
 ITU=  0
     Eigenvalues ---    0.00427   0.00476   0.00502   0.00932   0.01388
     Eigenvalues ---    0.01856   0.01886   0.01956   0.02024   0.02076
     Eigenvalues ---    0.02090   0.02092   0.02102   0.02158   0.02181
     Eigenvalues ---    0.02219   0.02231   0.02413   0.03718   0.04435
     Eigenvalues ---    0.04929   0.05546   0.05574   0.05585   0.08181
     Eigenvalues ---    0.09085   0.09087   0.09167   0.12077   0.12679
     Eigenvalues ---    0.13515   0.13532   0.13560   0.13579   0.14071
     Eigenvalues ---    0.15997   0.16000   0.16000   0.16000   0.16000
     Eigenvalues ---    0.16000   0.16000   0.16789   0.21897   0.21912
     Eigenvalues ---    0.22000   0.22574   0.22954   0.23993   0.24919
     Eigenvalues ---    0.24996   0.25000   0.25000   0.25000   0.25000
     Eigenvalues ---    0.25000   0.26920   0.29831   0.30184   0.33604
     Eigenvalues ---    0.33919   0.34029   0.34147   0.34156   0.34282
     Eigenvalues ---    0.34324   0.35246   0.35320   0.35349   0.35631
     Eigenvalues ---    0.37283   0.40178   0.40985   0.44705   0.45229
     Eigenvalues ---    0.45236   0.46525   0.46951   0.47179   0.47197
     Eigenvalues ---    0.47235   0.47256   0.48132   0.48148   0.51000
     Eigenvalues ---    0.55995   0.77975
 RFO step:  Lambda=-4.99599191D-03 EMin= 4.26976115D-03
 Linear search not attempted -- first point.
 Iteration  1 RMS(Cart)=  0.11767232 RMS(Int)=  0.00673912
 Iteration  2 RMS(Cart)=  0.01335761 RMS(Int)=  0.00007399
 Iteration  3 RMS(Cart)=  0.00012606 RMS(Int)=  0.00005387
 Iteration  4 RMS(Cart)=  0.00000001 RMS(Int)=  0.00005387
 Variable       Old X    -DE/DX   Delta X   Delta X   Delta X     New X
                                 (Linear)    (Quad)   (Total)
    R1        2.88301   0.00148   0.00000   0.00489   0.00489   2.88790
    R2        2.06788   0.00086   0.00000   0.00248   0.00248   2.07035
    R3        2.07068   0.00001   0.00000   0.00004   0.00004   2.07072
    R4        2.07082  -0.00006   0.00000  -0.00018  -0.00018   2.07064
    R5        2.87598   0.00203   0.00000   0.00661   0.00661   2.88259
    R6        2.07467   0.00085   0.00000   0.00247   0.00247   2.07713
    R7        2.07282   0.00026   0.00000   0.00077   0.00077   2.07359
    R8        2.75422  -0.00686   0.00000  -0.01816  -0.01816   2.73606
    R9        2.06857   0.00026   0.00000   0.00074   0.00074   2.06931
   R10        2.08004   0.00125   0.00000   0.00368   0.00368   2.08371
   R11        2.61782   0.00898   0.00000   0.01845   0.01845   2.63627
   R12        1.91710  -0.00117   0.00000  -0.00256  -0.00256   1.91454
   R13        2.39026  -0.02081   0.00000  -0.02652  -0.02652   2.36374
   R14        2.54258   0.00177   0.00000   0.00313   0.00313   2.54571
   R15        2.58870  -0.01391   0.00000  -0.02701  -0.02701   2.56169
   R16        2.68489   0.00213   0.00000   0.00504   0.00505   2.68994
   R17        2.68151   0.00208   0.00000   0.00490   0.00489   2.68640
   R18        2.62037  -0.00103   0.00000  -0.00212  -0.00210   2.61827
   R19        2.04663   0.00009   0.00000   0.00024   0.00024   2.04687
   R20        2.61602  -0.00039   0.00000  -0.00081  -0.00084   2.61519
   R21        2.05278  -0.00020   0.00000  -0.00056  -0.00056   2.05222
   R22        2.63699   0.00069   0.00000   0.00140   0.00139   2.63838
   R23        2.05112  -0.00017   0.00000  -0.00048  -0.00048   2.05065
   R24        2.63438   0.00247   0.00000   0.00519   0.00520   2.63958
   R25        3.38263   0.00001   0.00000   0.00002   0.00002   3.38265
   R26        2.05158  -0.00030   0.00000  -0.00084  -0.00084   2.05074
   R27        3.06505   0.00239   0.00000   0.00501   0.00501   3.07006
   R28        3.07244   0.00200   0.00000   0.00425   0.00425   3.07669
   R29        3.06441   0.00173   0.00000   0.00363   0.00363   3.06804
   R30        3.06524   0.00215   0.00000   0.00451   0.00451   3.06975
   R31        3.06463   0.00268   0.00000   0.00561   0.00561   3.07023
    A1        1.94033   0.00120   0.00000   0.00905   0.00904   1.94937
    A2        1.93671  -0.00001   0.00000  -0.00069  -0.00071   1.93600
    A3        1.93599  -0.00040   0.00000  -0.00354  -0.00355   1.93244
    A4        1.88301  -0.00037   0.00000  -0.00010  -0.00011   1.88290
    A5        1.88300  -0.00027   0.00000  -0.00037  -0.00037   1.88263
    A6        1.88249  -0.00020   0.00000  -0.00464  -0.00465   1.87784
    A7        1.94601   0.00152   0.00000   0.00817   0.00816   1.95417
    A8        1.91621  -0.00101   0.00000  -0.00622  -0.00625   1.90996
    A9        1.92022  -0.00004   0.00000   0.00116   0.00116   1.92137
   A10        1.90636   0.00022   0.00000   0.00465   0.00466   1.91102
   A11        1.90599  -0.00080   0.00000  -0.00384  -0.00384   1.90214
   A12        1.86731   0.00005   0.00000  -0.00440  -0.00440   1.86290
   A13        1.93071  -0.00038   0.00000   0.00013   0.00010   1.93081
   A14        1.91337   0.00133   0.00000   0.00781   0.00780   1.92116
   A15        1.91292   0.00031   0.00000   0.00723   0.00718   1.92009
   A16        1.90264  -0.00125   0.00000  -0.01491  -0.01489   1.88774
   A17        1.93489   0.00078   0.00000   0.00921   0.00917   1.94407
   A18        1.86819  -0.00079   0.00000  -0.00984  -0.00984   1.85835
   A19        2.09385  -0.00414   0.00000  -0.01871  -0.01871   2.07515
   A20        2.00741   0.00396   0.00000   0.02169   0.02162   2.02904
   A21        1.98508  -0.00043   0.00000  -0.00893  -0.00887   1.97622
   A22        2.06010  -0.00058   0.00000  -0.00227  -0.00227   2.05783
   A23        1.99169  -0.00784   0.00000  -0.03075  -0.03075   1.96094
   A24        2.23111   0.00842   0.00000   0.03301   0.03301   2.26412
   A25        2.10075  -0.00396   0.00000  -0.01554  -0.01554   2.08521
   A26        2.19384   0.00017   0.00000   0.00086   0.00085   2.19469
   A27        2.05329   0.00071   0.00000   0.00297   0.00294   2.05623
   A28        2.03361  -0.00086   0.00000  -0.00319  -0.00319   2.03042
   A29        2.12336  -0.00030   0.00000  -0.00131  -0.00142   2.12194
   A30        2.08828  -0.00234   0.00000  -0.01420  -0.01437   2.07391
   A31        2.07136   0.00265   0.00000   0.01609   0.01591   2.08727
   A32        2.13629   0.00033   0.00000   0.00132   0.00128   2.13757
   A33        2.06563  -0.00222   0.00000  -0.01313  -0.01313   2.05250
   A34        2.08126   0.00190   0.00000   0.01184   0.01183   2.09310
   A35        2.07422   0.00116   0.00000   0.00472   0.00470   2.07892
   A36        2.09191   0.00072   0.00000   0.00554   0.00556   2.09747
   A37        2.11705  -0.00188   0.00000  -0.01027  -0.01025   2.10680
   A38        2.11374  -0.00199   0.00000  -0.00830  -0.00830   2.10544
   A39        2.08549   0.00036   0.00000   0.00167   0.00166   2.08715
   A40        2.08394   0.00163   0.00000   0.00665   0.00665   2.09059
   A41        2.08497   0.00167   0.00000   0.00705   0.00708   2.09205
   A42        2.08592   0.00024   0.00000   0.00299   0.00296   2.08888
   A43        2.11227  -0.00191   0.00000  -0.00998  -0.01002   2.10225
   A44        1.63491   0.00132   0.00000   0.00923   0.00923   1.64414
   A45        1.63505   0.00138   0.00000   0.00990   0.00990   1.64495
   A46        1.63516   0.00122   0.00000   0.00880   0.00879   1.64396
   A47        1.63484   0.00116   0.00000   0.00809   0.00809   1.64293
   A48        1.50656  -0.00131   0.00000  -0.00914  -0.00913   1.49742
   A49        1.57031   0.00036   0.00000   0.00227   0.00218   1.57249
   A50        1.56326  -0.00072   0.00000  -0.00492  -0.00499   1.55827
   A51        1.50650  -0.00114   0.00000  -0.00811  -0.00811   1.49839
   A52        1.50656  -0.00123   0.00000  -0.00890  -0.00889   1.49766
   A53        1.50680  -0.00140   0.00000  -0.00989  -0.00989   1.49692
   A54        1.56323  -0.00051   0.00000  -0.00262  -0.00271   1.56053
   A55        1.56992   0.00022   0.00000   0.00066   0.00058   1.57051
   A56        3.14146   0.00001   0.00000   0.00010   0.00010   3.14156
   A57        3.27007   0.00254   0.00000   0.01803   0.01802   3.28810
   A58        3.26988   0.00253   0.00000   0.01800   0.01799   3.28788
   A59        3.14154   0.00024   0.00000   0.00180   0.00180   3.14334
   A60        3.14140  -0.00020   0.00000  -0.00208  -0.00209   3.13931
   A61        3.14178  -0.00003   0.00000  -0.00032  -0.00031   3.14147
    D1       -3.13541   0.00025   0.00000   0.00248   0.00247  -3.13294
    D2        1.03262  -0.00034   0.00000  -0.00454  -0.00452   1.02809
    D3       -1.01799   0.00023   0.00000   0.00386   0.00386  -1.01413
    D4        1.05204  -0.00008   0.00000  -0.00297  -0.00298   1.04906
    D5       -1.06312  -0.00067   0.00000  -0.00999  -0.00998  -1.07310
    D6       -3.11373  -0.00011   0.00000  -0.00159  -0.00159  -3.11532
    D7       -1.04017   0.00044   0.00000   0.00567   0.00565  -1.03452
    D8        3.12786  -0.00015   0.00000  -0.00135  -0.00135   3.12651
    D9        1.07725   0.00042   0.00000   0.00705   0.00704   1.08429
   D10       -3.12683  -0.00053   0.00000  -0.01710  -0.01713   3.13923
   D11        1.05761   0.00041   0.00000  -0.00370  -0.00370   1.05391
   D12       -0.98809   0.00041   0.00000  -0.00056  -0.00057  -0.98866
   D13       -1.00595  -0.00066   0.00000  -0.01646  -0.01647  -1.02241
   D14       -3.10469   0.00028   0.00000  -0.00306  -0.00304  -3.10773
   D15        1.13280   0.00028   0.00000   0.00007   0.00009   1.13289
   D16        1.03068  -0.00093   0.00000  -0.02129  -0.02130   1.00937
   D17       -1.06806   0.00001   0.00000  -0.00789  -0.00788  -1.07594
   D18       -3.11376   0.00001   0.00000  -0.00475  -0.00475  -3.11851
   D19        3.06306  -0.00015   0.00000   0.01937   0.01932   3.08238
   D20        0.59463   0.00076   0.00000   0.03085   0.03091   0.62553
   D21       -1.11498   0.00045   0.00000   0.01955   0.01951  -1.09547
   D22        2.69977   0.00136   0.00000   0.03103   0.03110   2.73087
   D23        0.93719  -0.00081   0.00000   0.00386   0.00379   0.94098
   D24       -1.53124   0.00010   0.00000   0.01534   0.01538  -1.51587
   D25        0.36785  -0.00032   0.00000   0.00022   0.00014   0.36798
   D26       -2.74979  -0.00039   0.00000  -0.00013  -0.00022  -2.75001
   D27        2.84428   0.00038   0.00000  -0.00005   0.00004   2.84432
   D28       -0.27335   0.00032   0.00000  -0.00040  -0.00032  -0.27367
   D29       -2.88815  -0.00260   0.00000  -0.08743  -0.08744  -2.97558
   D30        0.28022  -0.00249   0.00000  -0.08711  -0.08710   0.19312
   D31        0.50133  -0.00472   0.00000  -0.18305  -0.18304   0.31829
   D32       -2.71823  -0.00450   0.00000  -0.17304  -0.17305  -2.89127
   D33        3.07687  -0.00012   0.00000  -0.00692  -0.00697   3.06990
   D34       -0.04388  -0.00099   0.00000  -0.04008  -0.03987  -0.08376
   D35        0.01246  -0.00041   0.00000  -0.01707  -0.01707  -0.00462
   D36       -3.10829  -0.00127   0.00000  -0.05023  -0.04997   3.12492
   D37       -3.08914   0.00018   0.00000   0.00886   0.00893  -3.08021
   D38        0.05547  -0.00004   0.00000  -0.00028  -0.00019   0.05528
   D39       -0.01829   0.00042   0.00000   0.01809   0.01813  -0.00016
   D40        3.12632   0.00020   0.00000   0.00895   0.00901   3.13533
   D41        0.00265   0.00014   0.00000   0.00536   0.00535   0.00799
   D42       -3.13210  -0.00010   0.00000  -0.00451  -0.00462  -3.13672
   D43        3.12359   0.00095   0.00000   0.03787   0.03814  -3.12145
   D44       -0.01115   0.00070   0.00000   0.02799   0.02818   0.01703
   D45        0.00871  -0.00017   0.00000  -0.00719  -0.00722   0.00148
   D46       -3.13177  -0.00015   0.00000  -0.00625  -0.00630  -3.13807
   D47       -3.13593   0.00004   0.00000   0.00198   0.00207  -3.13386
   D48        0.00677   0.00006   0.00000   0.00292   0.00299   0.00977
   D49        0.00751  -0.00012   0.00000  -0.00564  -0.00565   0.00186
   D50       -3.13879  -0.00002   0.00000   0.00026   0.00024  -3.13855
   D51       -3.13521  -0.00014   0.00000  -0.00658  -0.00657   3.14141
   D52        0.00167  -0.00004   0.00000  -0.00069  -0.00068   0.00099
   D53       -0.01309   0.00013   0.00000   0.00651   0.00654  -0.00655
   D54        3.12156   0.00039   0.00000   0.01659   0.01663   3.13819
   D55        3.13321   0.00003   0.00000   0.00063   0.00065   3.13386
   D56       -0.01533   0.00029   0.00000   0.01071   0.01075  -0.00459
   D57        0.79533  -0.00036   0.00000  -0.00441  -0.00444   0.79089
   D58        2.36977   0.00017   0.00000  -0.00090  -0.00092   2.36885
   D59       -2.34607  -0.00017   0.00000  -0.00233  -0.00235  -2.34842
   D60       -0.77202   0.00021   0.00000  -0.00058  -0.00060  -0.77262
   D61       -2.35089  -0.00027   0.00000   0.00134   0.00136  -2.34953
   D62       -0.77646   0.00027   0.00000   0.00486   0.00488  -0.77158
   D63        0.79089  -0.00008   0.00000   0.00342   0.00345   0.79434
   D64        2.36495   0.00030   0.00000   0.00518   0.00519   2.37014
         Item               Value     Threshold  Converged?
 Maximum Force            0.020814     0.000450     NO 
 RMS     Force            0.002700     0.000300     NO 
 Maximum Displacement     0.536170     0.001800     NO 
 RMS     Displacement     0.126945     0.001200     NO 
 Predicted change in Energy=-2.747704D-03
 GradGradGradGradGradGradGradGradGradGradGradGradGradGradGradGradGradGrad

                          Input orientation:                          
 ---------------------------------------------------------------------
 Center     Atomic      Atomic             Coordinates (Angstroms)
 Number     Number       Type             X           Y           Z
 ---------------------------------------------------------------------
      1          6           0       -2.016693    1.916996   -0.203169
      2          6           0       -0.704646    1.349133    0.336736
      3          6           0        0.500855    2.164563   -0.120097
      4          7           0        1.726192    1.603992    0.409629
      5          6           0        2.944002    2.175159    0.039658
      6          8           0        2.933574    3.351045   -0.386698
      7          7           0        3.975169    1.320032    0.181851
      8          6           0        5.244329    1.777965    0.050903
      9          6           0        5.649378    3.140172    0.131823
     10          6           0        6.282649    0.819445   -0.104100
     11          6           0        7.618127    1.175460   -0.174259
     12          6           0        7.966870    2.524659   -0.088602
     13          6           0        6.984452    3.505154    0.068094
     14          1           0       -2.880024    1.333217    0.134712
     15          1           0       -2.020420    1.919746   -1.298936
     16          1           0       -2.158342    2.950844    0.131090
     17          1           0       -0.591504    0.308264    0.002119
     18          1           0       -0.726277    1.327847    1.433612
     19          1           0        0.414585    3.195803    0.237942
     20          1           0        0.525699    2.216878   -1.221229
     21          1           0        1.763432    0.593967    0.479630
     22          1           0        4.889924    3.905624    0.234519
     23          1           0        5.997075   -0.226716   -0.162067
     24          1           0        8.380301    0.412707   -0.296173
     25         16           0        9.690138    2.999725   -0.182597
     26          1           0        7.259102    4.552729    0.137512
     27          9           0       10.011428    2.032500   -1.447742
     28          9           0       11.258218    3.429678   -0.266348
     29          9           0        9.418180    4.238994   -1.195573
     30          9           0        9.598665    4.027230    1.072265
     31          9           0       10.190971    1.822288    0.818628
 ---------------------------------------------------------------------
                    Distance matrix (angstroms):
                    1          2          3          4          5
     1  C    0.000000
     2  C    1.528213   0.000000
     3  C    2.531055   1.525403   0.000000
     4  N    3.805611   2.445248   1.447860   0.000000
     5  C    4.973339   3.752759   2.448387   1.395053   0.000000
     6  O    5.157065   4.215169   2.719731   2.268062   1.250838
     7  N    6.033823   4.682468   3.588212   2.278248   1.347133
     8  C    7.266795   5.971255   4.762272   3.540655   2.334394
     9  C    7.770265   6.604803   5.246195   4.222371   2.873814
    10  C    8.372186   7.021196   5.936223   4.651960   3.606272
    11  C    9.663356   8.340253   7.185876   5.936283   4.784622
    12  C   10.002695   8.761162   7.474760   6.327869   5.036646
    13  C    9.144202   7.990170   6.623415   5.601818   4.253813
    14  H    1.095583   2.184797   3.490904   4.622350   5.885336
    15  H    1.095776   2.175382   2.793998   4.129891   5.148063
    16  H    1.095736   2.172787   2.784360   4.120825   5.161778
    17  H    2.159009   1.099171   2.157320   2.686390   3.998313
    18  H    2.165946   1.097295   2.149409   2.671966   4.016465
    19  H    2.782272   2.161626   1.095029   2.069698   2.734772
    20  H    2.755019   2.166561   1.102654   2.115777   2.727593
    21  H    4.062753   2.584976   2.102509   1.013132   2.021754
    22  H    7.200526   6.151854   4.735079   3.916296   2.611339
    23  H    8.295642   6.902548   5.994032   4.681749   3.889853
    24  H   10.505665   9.154983   8.073764   6.796652   5.724715
    25  S   11.756812  10.537822   9.227368   8.106988   6.799975
    26  H    9.649016   8.586268   7.172419   6.275523   4.927728
    27  F   12.092890  10.885108   9.603701   8.501681   7.223657
    28  F   13.360968  12.157405  10.832487   9.728803   8.413897
    29  F   11.710374  10.638180   9.218384   8.287738   6.906533
    30  F   11.874189  10.671055   9.362767   8.263596   6.984339
    31  F   12.250718  10.916527   9.741494   8.477466   7.297252
[...]
 41,0.00032607,0.00939776,0.02076028,0.00132703,-0.07572805,-0.07087611
 ,-0.00448032,-0.00000351,0.00000126,-0.00000065,-0.00000013,-0.0000001
 4,-0.00000033,-0.00000129,0.00000383,0.00000048,0.00000203,0.00000371,
 0.00000116,0.00000067,-0.00000132,0.00000086,-0.00000777,0.00000786,0.
 00000104,-0.00000677,-0.00000233,-0.00000849,0.00006332,0.00002873,0.0
 0001517,0.00102412,0.00037276,-0.00006260,0.00009536,-0.00005762,-0.00
 001444,0.00044011,0.00121178,0.00009127,-0.00079878,0.00422181,0.00032
 691,0.07977327,-0.00000571,-0.00000836,0.00000743,-0.00000834,0.000010
 64,-0.00001681,0.00007745,-0.00004846,0.00001477,-0.00026421,-0.000008
 25,0.00005166,0.00062097,-0.00041117,-0.00005253,-0.00013410,0.0002989
 9,0.00000624,-0.00066767,-0.00041108,0.00005052,-0.00034249,0.00179517
 ,-0.00048085,-0.00089692,-0.00313373,-0.00057870,-0.00010310,0.0009593
 4,0.00014259,0.00456722,-0.00101772,-0.00046068,-0.00761612,-0.0165586
 0,-0.00122370,-0.06781418,-0.32775082,-0.01935874,-0.00001120,-0.00000
 053,0.00000198,0.00000046,0.00000071,-0.00000301,0.00000133,0.00000413
 ,-0.00000080,-0.00000020,-0.00000198,0.00000096,0.00000254,0.00000044,
 0.00000168,0.00000577,0.00000840,-0.00000021,-0.00002754,0.00000388,-0
 .00002479,0.00002939,0.00001940,-0.00000517,0.00000693,0.00093614,0.00
 043725,-0.00004911,-0.00006151,0.00003924,-0.00043128,-0.00087141,-0.0
 0012128,-0.00023451,-0.00480656,-0.00038680,0.07566310,0.34688999,-0.0
 0000005,-0.00000076,0.00000096,-0.00000435,0.00000045,0.00000023,0.000
 00709,-0.00001003,0.00004928,-0.00001305,-0.00002881,-0.00001604,0.000
 03410,-0.00004581,0.00022669,-0.00004317,0.00001005,0.00002980,-0.0000
 6675,0.00008114,-0.00120144,0.00018884,-0.00047622,0.00874840,0.000020
 29,-0.00013771,0.00539199,-0.00002161,0.00015049,-0.00103057,0.0004604
 3,-0.00042772,0.00451964,-0.00063252,-0.00163207,0.00240302,-0.0042544
 7,-0.01928706,-0.03852807,-0.00000030,0.00000075,-0.00000040,-0.000001
 21,-0.00000104,-0.00000256,0.00000007,-0.00000002,0.00000152,-0.000000
 31,-0.00000070,-0.00000062,0.00000106,0.00000142,-0.00000415,0.0000024
 0,0.00000426,0.00000372,-0.00000011,-0.00000166,-0.00000677,-0.0000132
 9,0.00002504,-0.00004061,-0.00003244,0.00039526,-0.00527397,-0.0000147
 6,0.00003708,-0.00060587,-0.00002353,-0.00014664,0.00094421,0.00001714
 ,-0.00044772,0.00074339,0.00457150,0.02135709,0.02705089,-0.00004108,-
 0.00006090,0.00005266,-0.00003982,0.00009052,-0.00010425,0.00065879,-0
 .00038923,0.00003895,-0.00215989,-0.00042994,0.00052210,0.00455028,-0.
 00253528,-0.00031339,-0.00104121,0.00153514,0.00013349,-0.00633026,-0.
 00017020,0.00011519,0.00465387,0.00307198,0.00033282,-0.00414404,-0.00
 132696,-0.00136535,-0.00207944,0.00096388,-0.00012482,-0.00159460,0.00
 233777,0.00185326,-0.01507070,0.01953872,0.01930574,0.00176416,-0.0070
 4385,0.00440594,-0.00009435,-0.00000804,0.00002274,0.00000264,0.000008
 46,-0.00003149,0.00001517,0.00002400,-0.00000704,-0.00001064,-0.000036
 95,0.00000380,0.00002552,0.00000818,0.00000351,0.00007715,0.00005271,0
 .00000276,-0.00023934,0.00005094,-0.00020024,0.00009077,0.00012803,-0.
 00013242,-0.00035222,-0.00029978,-0.00072441,-0.00021414,-0.00024279,-
 0.00012060,-0.00119538,-0.00041601,0.00057697,-0.08316248,0.02723098,0
 .03651794,0.00025820,0.00023486,0.00037662,0.09708427,0.00001452,0.000
 01790,-0.00001959,0.00001226,-0.00003854,0.00003324,-0.00022558,0.0001
 3108,-0.00001039,0.00078467,0.00020517,-0.00018843,-0.00171860,0.00085
 551,0.00005959,0.00037872,-0.00044541,-0.00002529,0.00243870,0.0002832
 3,-0.00004163,-0.00208140,-0.00085707,-0.00025810,0.00085696,0.0004616
 5,0.00047467,0.00156152,0.00139964,0.00104419,-0.00066977,-0.00458270,
 0.00011014,-0.00249848,-0.00258464,-0.00477067,0.00042662,0.00287277,-
 0.00172664,0.00003144,0.00000204,-0.00000801,-0.00000030,-0.00000355,0
 .00001271,-0.00000637,-0.00000269,0.00000303,0.00000520,0.00002120,-0.
 00000062,-0.00000931,-0.00000379,0.00000138,-0.00003219,-0.00001624,0.
 00000061,0.00008879,-0.00002270,0.00007479,-0.00001063,-0.00005382,0.0
 0004790,0.00017334,0.00020632,0.00035711,0.00032259,0.00006710,0.00019
 179,-0.00095798,0.00184391,-0.00054032,0.02385570,-0.11025669,-0.05686
 677,-0.00061671,0.00033883,-0.00007814,-0.02001081,0.15583908,0.000020
 65,0.00003076,-0.00003221,0.00002326,-0.00005025,0.00005276,-0.0003666
 1,0.00021213,-0.00005680,0.00118672,0.00025994,-0.00023179,-0.00243510
 ,0.00118906,0.00009572,0.00068835,-0.00071053,0.00000936,0.00340137,0.
 00014052,0.00004550,-0.00262125,-0.00108374,-0.00036980,0.00169666,-0.
 00078137,0.00053178,0.00152563,0.00014053,0.00063327,0.00131243,-0.001
 53986,0.00002131,-0.00084747,-0.01627034,-0.00342400,0.00225875,0.0058
 7778,-0.00230196,0.00004859,0.00000266,-0.00001144,0.00000171,-0.00000
 341,0.00002363,-0.00000792,-0.00001014,0.00000206,0.00000649,0.0000238
 5,-0.00000311,-0.00001575,-0.00000448,0.00000804,-0.00004865,-0.000027
 53,-0.00000405,0.00014072,-0.00002734,0.00012907,-0.00003725,-0.000064
 03,0.00004442,0.00033018,0.00036357,0.00044670,0.00028734,0.00015876,0
 .00005159,0.00049576,0.00069022,-0.00128808,0.03554380,-0.05615475,-0.
 13828682,-0.00041152,-0.00000293,-0.00034053,-0.03058817,0.09549216,0.
 19345351,-0.00002599,-0.00003843,0.00003288,-0.00002296,0.00005655,-0.
 00006215,0.00042573,-0.00024210,0.00003313,-0.00132410,-0.00026287,0.0
 0032923,0.00266413,-0.00123769,-0.00017700,-0.00069397,0.00081804,0.00
 004816,-0.00343864,0.00003569,0.00000506,0.00258306,0.00082580,0.,-0.0
 0095494,-0.00118676,-0.00007288,-0.00135008,0.00039200,0.00004654,0.00
 075290,0.00123151,0.00008120,-0.00428974,-0.00216576,-0.00004994,0.001
 52235,-0.00024354,-0.00001981,-0.00006600,-0.00000788,0.00001783,0.000
 00284,0.00000592,-0.00002204,0.00001132,0.00001733,-0.00000529,-0.0000
 0676,-0.00002280,0.00000206,0.00001589,0.00000531,0.00000342,0.0000522
 4,0.00003457,0.00000231,-0.00014315,0.00002727,-0.00012414,0.00007177,
 0.00007407,-0.00008099,0.00002756,-0.00002639,-0.00000374,-0.00012072,
 -0.00011664,-0.00000629,0.00015059,0.00022659,0.00001013,-0.16549286,-
 0.02670544,-0.00025495,0.00037522,-0.00032612,-0.00003417,-0.01278833,
 -0.01843167,-0.01400638,0.27008212,-0.00000671,-0.00001249,0.00000850,
 -0.00000812,0.00001089,-0.00001809,0.00011670,-0.00007096,0.00001037,-
 0.00034890,-0.00003580,0.00008292,0.00074207,-0.00052215,-0.00005599,-
 0.00017784,0.00036925,0.00001667,-0.00100164,0.00013284,0.00000219,0.0
 0071334,0.00030208,0.00002084,-0.00073352,0.00007703,0.00000646,-0.000
 12698,0.00070077,0.00004668,0.00097508,-0.00032238,-0.00006997,-0.0023
 1090,0.00337638,0.00007611,0.00006655,-0.00104642,-0.00009960,-0.00001
 646,-0.00000153,0.00000362,0.00000029,0.00000079,-0.00000544,0.0000019
 5,0.00000837,-0.00000048,-0.00000058,0.00000019,0.00000189,0.00000434,
 -0.00000003,0.00000069,0.00000973,0.00001031,0.00000198,-0.00003981,0.
 00000613,-0.00003483,0.00002520,0.00001511,-0.00001646,-0.00006081,-0.
 00002837,0.00000443,0.00003477,-0.00000589,0.00000512,0.00009596,0.000
 53390,0.00005757,-0.02669518,-0.07270225,-0.00007527,-0.00017218,0.000
 30198,0.00004329,-0.03221710,-0.02011189,-0.02411811,0.04507772,0.1128
 4853,-0.00000127,-0.00000073,-0.00000110,0.00000085,-0.00000083,-0.000
 00430,-0.00000688,-0.00000040,-0.00001917,-0.00000551,-0.00000851,0.00
 002281,0.00001499,-0.00000164,-0.00002198,-0.00000296,0.00000220,0.000
 04928,-0.00001296,0.00000456,0.00006646,0.00000624,0.00001235,-0.00007
 513,-0.00003624,0.00001921,0.00003884,0.00001733,0.00003863,0.00006550
 ,0.00006002,-0.00007053,0.00044775,-0.00004729,0.00007645,0.00278912,-
 0.00001288,-0.00010105,0.00047268,-0.00000188,-0.00000104,0.00000047,0
 .00000190,0.00000106,0.00000396,0.00000040,0.00000060,-0.00000168,-0.0
 0000026,0.00000006,-0.00000042,-0.00000128,0.00000028,0.00000640,-0.00
 000008,0.00000097,-0.00000282,0.00000537,0.00000191,0.00001148,0.00000
 145,0.00000255,-0.00001800,-0.00000519,0.00000422,-0.00009198,0.000002
 92,0.00000726,-0.00008618,-0.00000180,0.00005267,-0.00027725,-0.000315
 02,-0.00014918,-0.06533296,-0.00002173,0.00004498,-0.00026640,-0.02930
 675,-0.02821932,-0.01246706,0.00047974,0.00021318,0.10008772,-0.000028
 09,-0.00004225,0.00003458,-0.00002730,0.00006200,-0.00007091,0.0004391
 5,-0.00025332,0.00003048,-0.00141825,-0.00023691,0.00037777,0.00303654
 ,-0.00181847,-0.00017287,-0.00066338,0.00117173,0.00005410,-0.00423825
 ,0.00013412,-0.00005258,0.00341912,-0.00008221,0.00003242,-0.00017376,
 -0.00181162,0.00020290,-0.00303155,-0.00051309,-0.00082198,-0.00069417
 ,0.00411413,0.00348200,-0.00420018,-0.02175210,0.01139416,-0.00148010,
 -0.00080029,0.00157441,-0.00006433,-0.00000600,0.00001560,0.00000239,0
 .00000583,-0.00002000,0.00001043,0.00001745,-0.00000508,-0.00000575,-0
 .00002267,0.00000255,0.00001567,0.00000516,0.00000439,0.00004861,0.000
 03602,0.00000064,-0.00015556,0.00003016,-0.00012980,0.00007741,0.00008
 735,-0.00008565,0.00000225,0.00007079,0.00001325,-0.00036493,-0.000104
 93,-0.00041474,0.00009889,-0.00041591,0.00020836,-0.06777253,-0.000589
 35,0.00014331,-0.00115102,-0.00130791,0.00007386,0.00472220,0.01562203
 ,-0.00221703,-0.03902733,0.02863012,-0.03481548,0.09637526,-0.00003465
 ,-0.00005936,0.00004378,-0.00004303,0.00007273,-0.00009231,0.00057620,
 -0.00035691,0.00004233,-0.00185600,-0.00021301,0.00045309,0.00424428,-
 0.00323626,-0.00020322,-0.00077931,0.00210514,0.00003326,-0.00634638,0
 .00060286,0.00007737,0.00512861,0.00064192,0.00033303,-0.00273202,-0.0
 0037027,-0.00098121,-0.00300825,-0.00022838,-0.00103643,-0.00313616,0.
 00505774,0.00485110,0.00305815,-0.01637347,0.01171222,0.00239123,-0.00
 513282,0.00008363,-0.00007492,-0.00000347,0.00001480,-0.00000041,0.000
 00397,-0.00002712,0.00000960,0.00002980,-0.00000185,-0.00000347,-0.000
 01427,0.00000609,0.00002270,0.00000302,-0.00000088,0.00004953,0.000048
 90,0.00000915,-0.00021658,0.00003962,-0.00018490,0.00010140,0.00010522
 ,-0.00009488,-0.00037082,-0.00012640,-0.00023993,-0.00067522,-0.000038
 49,-0.00065491,0.00055012,0.00044581,0.00030993,0.00273319,-0.14585919
 ,0.06766988,-0.00066757,0.00152815,0.00120069,0.00723771,-0.03494531,0
 .00674235,0.01263267,0.00010724,0.01101935,-0.02212561,0.18787065,0.00
 001647,0.00002818,-0.00002596,0.00002431,-0.00003640,0.00004433,-0.000
 30512,0.00018255,-0.00005221,0.00094831,0.00011163,-0.00019025,-0.0020
 8553,0.00145676,0.00004800,0.00046782,-0.00097552,0.00006632,0.0030203
 5,-0.00022493,0.00007981,-0.00223016,-0.00051420,-0.00029896,0.0011917
 7,0.00049756,0.00047292,0.00070558,0.00118624,0.00051035,0.00438756,-0
 .00284642,-0.00244778,-0.00852765,0.01233126,0.00021900,0.00072042,0.0
 0144063,0.00025240,0.00003714,0.00000057,-0.00000713,0.00000251,-0.000
 00049,0.00001943,-0.00000453,-0.00001420,-0.00000110,0.00000163,0.0000
 0837,-0.00000354,-0.00001330,-0.00000220,0.00000860,-0.00002812,-0.000
 02437,-0.00000830,0.00011727,-0.00001696,0.00011076,-0.00005135,-0.000
 04924,0.00002682,0.00016594,0.00006847,0.00001152,0.00054590,0.0000347
 1,0.00032241,-0.00030469,-0.00007361,-0.00030431,0.00036327,0.06676587
 ,-0.12066211,0.00062849,0.00013576,-0.00119686,0.00260205,-0.01377589,
 0.00839201,-0.02160837,0.01463529,-0.00674257,0.02226820,-0.09935223,0
 .16526452,-0.00002855,-0.00004096,0.00003497,-0.00002984,0.00006278,-0
 .00006963,0.00044636,-0.00026440,0.00002633,-0.00144240,-0.00024078,0.
 00038521,0.00311672,-0.00186061,-0.00030244,-0.00067899,0.00121385,0.0
 0007972,-0.00435954,0.00013601,0.00007713,0.00350315,-0.00006019,-0.00
 018434,-0.00023738,-0.00177495,-0.00041686,-0.00304054,-0.00066232,0.0
 0084917,-0.00091030,0.00468317,-0.00293786,-0.00437458,-0.02036169,-0.
 01434262,-0.00144516,-0.00067796,-0.00160278,-0.00006569,-0.00000611,0
 .00001589,0.00000236,0.00000566,-0.00002106,0.00001099,0.00001795,-0.0
 0000508,-0.00000580,-0.00002215,0.00000234,0.00001675,0.00000480,0.000
 00458,0.00004782,0.00003554,0.00000316,-0.00015884,0.00002994,-0.00013
 567,0.00007721,0.00008670,-0.00008499,-0.00000408,0.00006789,-0.000000
 36,-0.00037270,-0.00016206,0.00042562,0.00010082,-0.00037718,-0.000281
 31,-0.06778913,-0.00215838,-0.00286672,-0.00104693,-0.00125424,-0.0002
 3552,0.00761964,0.00112317,0.00033870,-0.03722275,0.02284950,0.0394084
 8,0.00869041,0.00024222,-0.00098799,0.09481912,-0.00003414,-0.00005537
 ,0.00003779,-0.00003921,0.00006851,-0.00009340,0.00052231,-0.00032081,
 0.00000614,-0.00170967,-0.00020753,0.00051850,0.00390959,-0.00297897,-
 0.00043911,-0.00068917,0.00193117,0.00016564,-0.00586580,0.00056229,0.
 00000770,0.00474701,0.00061415,-0.00039030,-0.00251190,-0.00044374,0.0
 0091413,-0.00284968,-0.00019453,0.00102011,-0.00256956,0.00516337,-0.0
 0368341,0.00131129,-0.01258557,-0.01363974,0.00243264,-0.00479678,-0.0
 0084955,-0.00007222,-0.00000548,0.00001459,0.00000294,0.00000640,-0.00
 001752,0.00000913,0.00002818,-0.00000558,-0.00000370,-0.00001275,0.000
 00521,0.00001918,0.00000221,0.00001143,0.00004222,0.00004248,0.0000015
 8,-0.00018876,0.00003558,-0.00015191,0.00009918,0.00010145,-0.00009816
 ,-0.00034688,-0.00014021,0.00022608,-0.00057277,-0.00011460,0.00060951
 ,0.00049777,0.00046302,-0.00021979,0.00124384,-0.12628159,-0.06858535,
 -0.00067578,0.00167922,-0.00077728,0.00259647,0.00113071,-0.00498904,0
 .00904259,0.00359935,-0.00973618,0.00057976,0.00854517,0.01447281,-0.0
 1616195,0.15920810,-0.00002528,-0.00003721,0.00002653,-0.00002606,0.00
 004482,-0.00007183,0.00034200,-0.00021703,-0.00002046,-0.00116518,-0.0
 0017137,0.00038181,0.00258317,-0.00178386,-0.00031040,-0.00054228,0.00
 118398,0.00018385,-0.00375553,0.00028576,0.00010963,0.00281566,0.00064
 574,-0.00037197,-0.00154440,-0.00057351,0.00057049,-0.00101289,-0.0012
 7160,0.00049370,-0.00483697,0.00378731,-0.00236218,0.00887828,-0.01354
 017,-0.00332930,-0.00031248,-0.00214656,0.00002684,-0.00005260,-0.0000
 0541,0.00001076,0.00000489,0.00000614,-0.00000653,0.00000693,0.0000191
 0,-0.00000686,-0.00000295,-0.00001037,0.00000304,0.00001125,0.00000252
 ,0.00001723,0.00003088,0.00003003,-0.00000423,-0.00011908,0.00002595,-
 0.00008768,0.00006993,0.00007120,-0.00008982,-0.00022213,-0.00008972,0
 .00004390,-0.00061454,-0.00009066,0.00041026,0.00036675,0.00019265,-0.
 00033060,-0.00248658,-0.06755672,-0.13981564,-0.00070849,0.00033962,-0
 .00128542,0.00220768,-0.00448208,-0.00101694,0.02404900,-0.01380508,-0
 .01216708,-0.00070200,-0.00674921,-0.04433816,-0.02181533,0.09890015,0
 .19492820,-0.00004430,-0.00006220,0.00005218,-0.00004391,0.00010009,-0
 .00010833,0.00066501,-0.00039222,0.00002602,-0.00218784,-0.00044079,0.
 00065106,0.00460211,-0.00257332,-0.00037838,-0.00102106,0.00155140,0.0
 0005074,-0.00640403,-0.00015633,-0.00012038,0.00468492,0.00311640,-0.0
 0009970,-0.00413421,-0.00145465,0.00128910,-0.00208403,0.00093061,0.00
 031029,-0.00178775,0.00256253,-0.00147625,-0.01551075,0.02261286,-0.01
 586856,0.00145737,-0.00652203,-0.00543526,-0.00009729,-0.00000883,0.00
 002331,0.00000410,0.00000929,-0.00002882,0.00001618,0.00002439,-0.0000
 0842,-0.00000918,-0.00003632,0.00000240,0.00002590,0.00000871,0.000008
 94,0.00007268,0.00004814,0.00000207,-0.00023630,0.00004528,-0.00019909
 ,0.00009775,0.00013844,-0.00013647,-0.00036508,-0.00039490,0.00070240,
 -0.00021937,-0.00026159,0.00009464,-0.00112403,-0.00029737,-0.00058524
 ,-0.08573743,0.03417522,-0.03345180,0.00026290,0.00028493,-0.00036179,
 0.00903527,-0.00042643,0.00429596,-0.01176939,-0.03542658,0.02459573,0
 .00755814,0.00309279,-0.00206817,0.00476183,0.00723525,-0.00142163,0.0
 9953181,0.00001992,0.00002372,-0.00002124,0.00001590,-0.00004929,0.000
 04769,-0.00027057,0.00014893,0.00000693,0.00094475,0.00024994,-0.00034
 067,-0.00202420,0.00100009,0.00024547,0.00044503,-0.00052592,-0.000040
 84,0.00286987,0.00029922,0.00007330,-0.00239763,-0.00104488,0.00027875
 ,0.00106718,0.00040911,-0.00051911,0.00169814,0.00157572,-0.00097017,-
 0.00053722,-0.00472763,-0.00078571,-0.00253987,-0.00556252,0.00451692,
 0.00084685,0.00335392,0.00249260,0.00004098,0.00000376,-0.00001003,-0.
 00000318,-0.00000515,0.00000907,-0.00000796,-0.00000428,0.00000506,0.0
 0000614,0.00002435,0.00000183,-0.00001004,-0.00000698,-0.00000789,-0.0
 0003455,-0.00001626,0.00000173,0.00009700,-0.00002027,0.00007551,-0.00
 002554,-0.00006995,0.00007506,0.00022003,0.00030190,-0.00039398,0.0003
 5498,0.00011400,-0.00019522,-0.00081645,0.00184898,0.00104606,0.030758
 19,-0.12668347,0.05753946,-0.00066572,0.00031476,0.00019238,0.00007752
 ,0.00824889,-0.00548647,-0.01948955,-0.02754100,0.02678693,0.00131600,
 -0.00025034,0.00455003,0.01552677,-0.03504344,0.00699558,-0.02748276,0
 .18363410,-0.00002232,-0.00002829,0.00002331,-0.00001862,0.00004612,-0
 .00005729,0.00028519,-0.00017239,-0.00001278,-0.00099600,-0.00024545,0
 .00034059,0.00201758,-0.00093330,-0.00021080,-0.00057175,0.00055842,0.
 00007309,-0.00279338,-0.00010231,0.00004525,0.00212013,0.00088222,-0.0
 0027739,-0.00140248,0.00082363,0.00056852,-0.00118759,-0.00004149,0.00
 050152,-0.00135931,0.00077511,0.00021770,0.00097625,0.01525109,0.00000
 537,-0.00233505,-0.00486176,-0.00248564,-0.00004664,-0.00000529,0.0000
 1085,0.00000472,0.00000573,-0.00000679,0.00000830,0.00000957,-0.000006
 44,-0.00000519,-0.00001971,-0.00000062,0.00000949,0.00000628,0.0000140
 4,0.00003644,0.00002139,-0.00000323,-0.00009709,0.00002099,-0.00007270
 ,0.00004202,0.00006542,-0.00009027,-0.00029339,-0.00036118,0.00033818,
 -0.00023237,-0.00014135,0.00000752,-0.00058389,-0.00019640,-0.00119181
 ,-0.03306932,0.05677473,-0.12003712,0.00030428,0.00008521,-0.00031347,
 -0.00605525,0.01310859,-0.04410613,0.01138742,0.02306151,-0.00648638,-
 0.00040486,0.00501702,0.00043005,0.00463924,-0.01323506,0.00840885,0.0
 2964345,-0.09616904,0.16437402\\-0.00000382,0.00000198,0.00000121,0.00
 000589,-0.00000506,0.00000051,-0.00000571,0.00000241,-0.00000231,0.000
 01795,0.00001175,-0.00000241,-0.00000633,-0.00001128,-0.00000312,-0.00
 000545,0.00000429,0.00000441,-0.00000595,0.00000044,-0.00000063,0.0000
 0266,0.00000724,0.00000347,-0.00001021,-0.00000880,0.00000085,-0.00000
 131,0.00000005,-0.00000386,-0.00000135,-0.00000199,-0.00000168,-0.0000
 0204,0.00000357,0.00000174,0.00000864,-0.00000128,0.00000098,-0.000001
 57,-0.00000261,-0.00000121,0.00000108,0.00000064,-0.00000005,-0.000000
 07,-0.00000255,0.00000204,-0.00000164,-0.00000161,-0.00000058,0.000000
 72,-0.00000050,-0.00000120,0.00000517,-0.00000179,0.00000126,0.0000022
 8,-0.00000032,-0.00000003,-0.00000162,-0.00000289,0.00000047,0.0000025
 0,-0.00000014,0.00000057,-0.00000098,0.00000097,-0.00000200,0.00000113
 ,0.00000204,-0.00000144,-0.00000944,0.00000641,-0.00000674,-0.00000144
 ,-0.00000050,0.00000206,-0.00000035,-0.00000180,0.00000398,0.00001169,
 -0.00000403,0.00001087,-0.00000599,0.00000451,-0.00000094,0.00000309,-
 0.00000681,0.00000079,0.00000248,0.00000766,-0.00000704\\\@


 AN OPTIMIST IS A GUY
 THAT HAS NEVER HAD
 MUCH EXPERIENCE
   (CERTAIN MAXIMS OF ARCHY  -- DON MARQUIS)
 Job cpu time:       0 days  3 hours  3 minutes 10.8 seconds.
 File lengths (MBytes):  RWF=    543 Int=      0 D2E=      0 Chk=     13 Scr=      1
 Normal termination of Gaussian 09 at Wed Oct 31 14:19:02 2018.
WARNING: pbs_rusage is deprecated and values produced may not be accurate


=============================================================================
                                     Resource usage:
                                       CPU time:              08:49:45
   JobId:    1873687.r-man2            Elapsed time:          02:12:46
   Project:             q95            Requested time:        38:00:00
   Service Units:      8.85 
                                       Max physical memory:      816MB
                                       Max virtual memory:      1625MB
                                       Requested memory:           0MB

                                       Number of cpus:               4

                                       Max jobfs disk use:       0.5GB
                                       Requested jobfs:         16.0GB
=============================================================================

