 Entering Gaussian System, Link 0=/apps/gaussian/g09e01/g09/g09
 AtFile(1): /home/507/hio507/Basis/6-31pGd.gbs
 Initial command:
 /apps/gaussian/g09e01/g09/l1.exe "/jobfs/local/1827658.r-man2/Gau-49154.inp" -scrdir="/jobfs/local/1827658.r-man2/"
 Entering Link 1 = /apps/gaussian/g09e01/g09/l1.exe PID=     49155.
  
 Copyright (c) 1988,1990,1992,1993,1995,1998,2003,2009,2015,
            Gaussian, Inc.  All Rights Reserved.
  
 This is part of the Gaussian(R) 09 program.  It is based on
 the Gaussian(R) 03 system (copyright 2003, Gaussian, Inc.),
 the Gaussian(R) 98 system (copyright 1998, Gaussian, Inc.),
 the Gaussian(R) 94 system (copyright 1995, Gaussian, Inc.),
 the Gaussian 92(TM) system (copyright 1992, Gaussian, Inc.),
 the Gaussian 90(TM) system (copyright 1990, Gaussian, Inc.),
 the Gaussian 88(TM) system (copyright 1988, Gaussian, Inc.),
 the Gaussian 86(TM) system (copyright 1986, Carnegie Mellon
 University), and the Gaussian 82(TM) system (copyright 1983,
 Carnegie Mellon University). Gaussian is a federally registered
 trademark of Gaussian, Inc.
  
 This software contains proprietary and confidential information,
 including trade secrets, belonging to Gaussian, Inc.
  
 This software is provided under written license and may be
 used, copied, transmitted, or stored only in accord with that
 written license.
  
 The following legend is applicable only to US Government
 contracts under FAR:
  
                    RESTRICTED RIGHTS LEGEND
  
 Use, reproduction and disclosure by the US Government is
 subject to restrictions as set forth in subparagraphs (a)
 and (c) of the Commercial Computer Software - Restricted
 Rights clause in FAR 52.227-19.
  
 Gaussian, Inc.
 340 Quinnipiac St., Bldg. 40, Wallingford CT 06492
  
  
 ---------------------------------------------------------------
 Warning -- This program may not be used in any manner that
 competes with the business of Gaussian, Inc. or will provide
 assistance to any competitor of Gaussian, Inc.  The licensee
 of this program is prohibited from giving any competitor of
 Gaussian, Inc. access to this program.  By using this program,
 the user acknowledges that Gaussian, Inc. is engaged in the
 business of creating and licensing software in the field of
 computational chemistry and represents and warrants to the
 licensee that it is not a competitor of Gaussian, Inc. and that
 it will not use this program in any manner prohibited above.
 ---------------------------------------------------------------
  

 Cite this work as:
 Gaussian 09, Revision E.01,
 M. J. Frisch, G. W. Trucks, H. B. Schlegel, G. E. Scuseria, 
 M. A. Robb, J. R. Cheeseman, G. Scalmani, V. Barone, B. Mennucci, 
 G. A. Petersson, H. Nakatsuji, M. Caricato, X. Li, H. P. Hratchian, 
 A. F. Izmaylov, J. Bloino, G. Zheng, J. L. Sonnenberg, M. Hada, 
 M. Ehara, K. Toyota, R. Fukuda, J. Hasegawa, M. Ishida, T. Nakajima, 
 Y. Honda, O. Kitao, H. Nakai, T. Vreven, J. A. Montgomery, Jr., 
 J. E. Peralta, F. Ogliaro, M. Bearpark, J. J. Heyd, E. Brothers, 
 K. N. Kudin, V. N. Staroverov, T. Keith, R. Kobayashi, J. Normand, 
 K. Raghavachari, A. Rendell, J. C. Burant, S. S. Iyengar, J. Tomasi, 
 M. Cossi, N. Rega, J. M. Millam, M. Klene, J. E. Knox, J. B. Cross, 
 V. Bakken, C. Adamo, J. Jaramillo, R. Gomperts, R. E. Stratmann, 
 O. Yazyev, A. J. Austin, R. Cammi, C. Pomelli, J. W. Ochterski, 
 R. L. Martin, K. Morokuma, V. G. Zakrzewski, G. A. Voth, 
 P. Salvador, J. J. Dannenberg, S. Dapprich, A. D. Daniels, 
 O. Farkas, J. B. Foresman, J. V. Ortiz, J. Cioslowski, 
 and D. J. Fox, Gaussian, Inc., Wallingford CT, 2013.
 
 ******************************************
 Gaussian 09:  ES64L-G09RevE.01 30-Nov-2015
                30-Oct-2018 
 ******************************************
 %chk=4SF5_a1.M062X_6-31pGd_opt_water.chk
 %mem=196608000
 %nproc=4
 Will use up to    4 processors via shared memory.
 ----------------------------------------------------------------------
 # M062X/Gen 6D SCF=Tight INT(grid=ultrafine) OPT IOP(2/17=4) SCRF=(SMD
 ,Solvent=h2o) maxdisk=2147483648
 ----------------------------------------------------------------------
 1/14=-1,18=20,19=15,26=4,38=1/1,3;
 2/9=110,12=2,17=4,18=5,40=1/2;
 3/5=7,8=2,11=2,16=1,25=1,30=1,70=32201,71=1,72=1,74=-55,75=-5/1,2,3;
 4//1;
 5/5=2,32=2,38=5,53=1/2;
 6/7=2,8=2,9=2,10=2,28=1/1;
 7//1,2,3,16;
 1/14=-1,18=20,19=15,26=4/3(2);
 2/9=110,17=4/2;
 99//99;
 2/9=110,17=4/2;
 3/5=7,6=1,8=2,11=2,16=1,25=1,30=1,70=32205,71=1,72=1,74=-55,75=-5,82=7/1,2,3;
 4/5=5,16=3,69=1/1;
 5/5=2,32=2,38=5,53=1/2;
 7//1,2,3,16;
 1/14=-1,18=20,19=15,26=4/3(-5);
 2/9=110,17=4/2;
 6/7=2,8=2,9=2,10=2,19=2,28=1/1;
 99/9=1/99;
 -------------------------------
 4SF5_a1.M062X_6-31pGd_opt_water
 -------------------------------
 Symbolic Z-matrix:
 Charge = -1 Multiplicity = 1
 C                    -2.14249   1.96008  -0.02364 
 C                    -0.81352   1.22332   0.1076 
 C                     0.37179   2.18969  -0.0055 
 N                     1.6313    1.47612   0.10396 
 C                     2.83457   2.10889   0.00358 
 O                     2.8647    3.31645  -0.17375 
 N                     3.98456   1.37414   0.09556 
 C                     5.34437   1.83447   0.00729 
 C                     5.73042   3.18273  -0.18436 
 C                     6.36063   0.86999   0.12274 
 C                     7.70728   1.22287   0.06085 
 C                     8.08984   2.55885  -0.11802 
 C                     7.08548   3.53406  -0.24507 
 H                    -2.97929   1.23454   0.05604 
 H                    -2.20543   2.46826  -1.00955 
 H                    -2.24613   2.71489   0.78447 
 H                    -0.74528   0.46037  -0.69871 
 H                    -0.78093   0.70638   1.09147 
 H                     0.3079    2.9521    0.80203 
 H                     0.32831   2.70094  -0.99232 
 H                     1.61436   0.45457   0.25234 
 H                     5.02621   3.989    -0.28537 
 H                     6.10842  -0.17309   0.26724 
 H                     8.4523    0.44455   0.15963 
 S                     9.85392   3.00786  -0.16637 
 H                     7.34842   4.57494  -0.38661 
 F                     10.17725   1.70599  -1.23172 
 F                     11.51069   3.43031  -0.20596 
 F                     9.58191   4.01789  -1.52219 
 F                     9.5635    4.31737   0.89809 
 F                     10.16035   2.00657   1.18938 
 

 GradGradGradGradGradGradGradGradGradGradGradGradGradGradGradGradGradGrad
 Berny optimization.
 Initialization pass.
                           ----------------------------
                           !    Initial Parameters    !
                           ! (Angstroms and Degrees)  !
 --------------------------                            --------------------------
 ! Name  Definition              Value          Derivative Info.                !
 --------------------------------------------------------------------------------
 ! R1    R(1,2)                  1.5252         estimate D2E/DX2                !
 ! R2    R(1,14)                 1.1104         estimate D2E/DX2                !
 ! R3    R(1,15)                 1.111          estimate D2E/DX2                !
 ! R4    R(1,16)                 1.1106         estimate D2E/DX2                !
 ! R5    R(2,3)                  1.5335         estimate D2E/DX2                !
 ! R6    R(2,17)                 1.1122         estimate D2E/DX2                !
 ! R7    R(2,18)                 1.1119         estimate D2E/DX2                !
 ! R8    R(3,4)                  1.4517         estimate D2E/DX2                !
 ! R9    R(3,19)                 1.1124         estimate D2E/DX2                !
 ! R10   R(3,20)                 1.1122         estimate D2E/DX2                !
 ! R11   R(4,5)                  1.3632         estimate D2E/DX2                !
 ! R12   R(4,21)                 1.0324         estimate D2E/DX2                !
 ! R13   R(5,6)                  1.2209         estimate D2E/DX2                !
 ! R14   R(5,7)                  1.3678         estimate D2E/DX2                !
 ! R15   R(7,8)                  1.4383         estimate D2E/DX2                !
 ! R16   R(8,9)                  1.4155         estimate D2E/DX2                !
 ! R17   R(8,10)                 1.4058         estimate D2E/DX2                !
 ! R18   R(9,13)                 1.4012         estimate D2E/DX2                !
 ! R19   R(9,22)                 1.0753         estimate D2E/DX2                !
 ! R20   R(10,11)                1.3935         estimate D2E/DX2                !
 ! R21   R(10,23)                1.0828         estimate D2E/DX2                !
 ! R22   R(11,12)                1.4011         estimate D2E/DX2                !
 ! R23   R(11,24)                1.0819         estimate D2E/DX2                !
 ! R24   R(12,13)                1.4057         estimate D2E/DX2                !
 ! R25   R(12,25)                1.821          estimate D2E/DX2                !
 ! R26   R(13,26)                1.0829         estimate D2E/DX2                !
 ! R27   R(25,27)                1.713          estimate D2E/DX2                !
 ! R28   R(25,28)                1.7102         estimate D2E/DX2                !
 ! R29   R(25,29)                1.7124         estimate D2E/DX2                !
 ! R30   R(25,30)                1.7124         estimate D2E/DX2                !
 ! R31   R(25,31)                1.713          estimate D2E/DX2                !
 ! A1    A(2,1,14)             109.5628         estimate D2E/DX2                !
 ! A2    A(2,1,15)             110.2852         estimate D2E/DX2                !
 ! A3    A(2,1,16)             110.3038         estimate D2E/DX2                !
 ! A4    A(14,1,15)            108.655          estimate D2E/DX2                !
 ! A5    A(14,1,16)            108.7555         estimate D2E/DX2                !
 ! A6    A(15,1,16)            109.2414         estimate D2E/DX2                !
 ! A7    A(1,2,3)              111.2689         estimate D2E/DX2                !
 ! A8    A(1,2,17)             108.8121         estimate D2E/DX2                !
 ! A9    A(1,2,18)             109.0424         estimate D2E/DX2                !
 ! A10   A(3,2,17)             109.3543         estimate D2E/DX2                !
 ! A11   A(3,2,18)             109.6082         estimate D2E/DX2                !
 ! A12   A(17,2,18)            108.7105         estimate D2E/DX2                !
 ! A13   A(2,3,4)              110.8112         estimate D2E/DX2                !
 ! A14   A(2,3,19)             109.5098         estimate D2E/DX2                !
 ! A15   A(2,3,20)             108.9585         estimate D2E/DX2                !
 ! A16   A(4,3,19)             109.3886         estimate D2E/DX2                !
 ! A17   A(4,3,20)             109.0715         estimate D2E/DX2                !
 ! A18   A(19,3,20)            109.074          estimate D2E/DX2                !
 ! A19   A(3,4,5)              122.1469         estimate D2E/DX2                !
 ! A20   A(3,4,21)             118.879          estimate D2E/DX2                !
 ! A21   A(5,4,21)             118.9706         estimate D2E/DX2                !
 ! A22   A(4,5,6)              119.4452         estimate D2E/DX2                !
 ! A23   A(4,5,7)              119.1981         estimate D2E/DX2                !
 ! A24   A(6,5,7)              121.3554         estimate D2E/DX2                !
 ! A25   A(5,7,8)              128.2307         estimate D2E/DX2                !
 ! A26   A(7,8,9)              124.8203         estimate D2E/DX2                !
 ! A27   A(7,8,10)             117.3111         estimate D2E/DX2                !
 ! A28   A(9,8,10)             117.8685         estimate D2E/DX2                !
 ! A29   A(8,9,13)             120.5611         estimate D2E/DX2                !
 ! A30   A(8,9,22)             123.2525         estimate D2E/DX2                !
 ! A31   A(13,9,22)            116.1856         estimate D2E/DX2                !
 ! A32   A(8,10,11)            121.4136         estimate D2E/DX2                !
 ! A33   A(8,10,23)            120.2294         estimate D2E/DX2                !
 ! A34   A(11,10,23)           118.3565         estimate D2E/DX2                !
 ! A35   A(10,11,12)           120.7294         estimate D2E/DX2                !
 ! A36   A(10,11,24)           118.6347         estimate D2E/DX2                !
 ! A37   A(12,11,24)           120.6349         estimate D2E/DX2                !
 ! A38   A(11,12,13)           118.5521         estimate D2E/DX2                !
 ! A39   A(11,12,25)           120.1991         estimate D2E/DX2                !
 ! A40   A(13,12,25)           121.2462         estimate D2E/DX2                !
 ! A41   A(9,13,12)            120.8716         estimate D2E/DX2                !
 ! A42   A(9,13,26)            118.7838         estimate D2E/DX2                !
 ! A43   A(12,13,26)           120.3437         estimate D2E/DX2                !
 ! A44   A(12,25,27)            90.6858         estimate D2E/DX2                !
 ! A45   A(12,25,29)            90.7207         estimate D2E/DX2                !
 ! A46   A(12,25,30)            90.4445         estimate D2E/DX2                !
 ! A47   A(12,25,31)            90.467          estimate D2E/DX2                !
 ! A48   A(27,25,28)            89.4546         estimate D2E/DX2                !
 ! A49   A(27,25,29)            89.1885         estimate D2E/DX2                !
 ! A50   A(27,25,31)            90.8146         estimate D2E/DX2                !
 ! A51   A(28,25,29)            89.4188         estimate D2E/DX2                !
 ! A52   A(28,25,30)            89.415          estimate D2E/DX2                !
 ! A53   A(28,25,31)            89.3934         estimate D2E/DX2                !
 ! A54   A(29,25,30)            90.8124         estimate D2E/DX2                !
 ! A55   A(30,25,31)            89.1611         estimate D2E/DX2                !
 ! A56   L(12,25,28,27,-1)     180.1404         estimate D2E/DX2                !
 ! A57   L(27,25,30,12,-1)     181.1304         estimate D2E/DX2                !
 ! A58   L(29,25,31,12,-1)     181.1877         estimate D2E/DX2                !
 ! A59   L(12,25,28,27,-2)     180.1375         estimate D2E/DX2                !
 ! A60   L(27,25,30,12,-2)     179.985          estimate D2E/DX2                !
 ! A61   L(29,25,31,12,-2)     180.0173         estimate D2E/DX2                !
 ! D1    D(14,1,2,3)           179.6582         estimate D2E/DX2                !
 ! D2    D(14,1,2,17)           59.1071         estimate D2E/DX2                !
 ! D3    D(14,1,2,18)          -59.3232         estimate D2E/DX2                !
 ! D4    D(15,1,2,3)            60.1034         estimate D2E/DX2                !
 ! D5    D(15,1,2,17)          -60.4477         estimate D2E/DX2                !
 ! D6    D(15,1,2,18)         -178.878          estimate D2E/DX2                !
 ! D7    D(16,1,2,3)           -60.6516         estimate D2E/DX2                !
 ! D8    D(16,1,2,17)          178.7973         estimate D2E/DX2                !
 ! D9    D(16,1,2,18)           60.367          estimate D2E/DX2                !
 ! D10   D(1,2,3,4)           -179.2856         estimate D2E/DX2                !
 ! D11   D(1,2,3,19)            59.9542         estimate D2E/DX2                !
 ! D12   D(1,2,3,20)           -59.2743         estimate D2E/DX2                !
 ! D13   D(17,2,3,4)           -59.0544         estimate D2E/DX2                !
 ! D14   D(17,2,3,19)         -179.8146         estimate D2E/DX2                !
 ! D15   D(17,2,3,20)           60.957          estimate D2E/DX2                !
 ! D16   D(18,2,3,4)            60.028          estimate D2E/DX2                !
 ! D17   D(18,2,3,19)          -60.7322         estimate D2E/DX2                !
 ! D18   D(18,2,3,20)         -179.9607         estimate D2E/DX2                !
 ! D19   D(2,3,4,5)            178.4489         estimate D2E/DX2                !
 ! D20   D(2,3,4,21)            -0.867          estimate D2E/DX2                !
 ! D21   D(19,3,4,5)           -60.7191         estimate D2E/DX2                !
 ! D22   D(19,3,4,21)          119.965          estimate D2E/DX2                !
 ! D23   D(20,3,4,5)            58.5051         estimate D2E/DX2                !
 ! D24   D(20,3,4,21)         -120.8108         estimate D2E/DX2                !
 ! D25   D(3,4,5,6)              0.5855         estimate D2E/DX2                !
 ! D26   D(3,4,5,7)           -179.0071         estimate D2E/DX2                !
 ! D27   D(21,4,5,6)           179.9008         estimate D2E/DX2                !
 ! D28   D(21,4,5,7)             0.3082         estimate D2E/DX2                !
 ! D29   D(4,5,7,8)            179.4692         estimate D2E/DX2                !
 ! D30   D(6,5,7,8)             -0.1154         estimate D2E/DX2                !
 ! D31   D(5,7,8,9)              0.6781         estimate D2E/DX2                !
 ! D32   D(5,7,8,10)          -179.4304         estimate D2E/DX2                !
 ! D33   D(7,8,9,13)           179.4092         estimate D2E/DX2                !
 ! D34   D(7,8,9,22)            -0.2392         estimate D2E/DX2                !
 ! D35   D(10,8,9,13)           -0.4818         estimate D2E/DX2                !
 ! D36   D(10,8,9,22)          179.8698         estimate D2E/DX2                !
 ! D37   D(7,8,10,11)         -179.4634         estimate D2E/DX2                !
 ! D38   D(7,8,10,23)            0.2822         estimate D2E/DX2                !
 ! D39   D(9,8,10,11)            0.4359         estimate D2E/DX2                !
 ! D40   D(9,8,10,23)         -179.8185         estimate D2E/DX2                !
 ! D41   D(8,9,13,12)            0.026          estimate D2E/DX2                !
 ! D42   D(8,9,13,26)         -179.6343         estimate D2E/DX2                !
 ! D43   D(22,9,13,12)         179.6984         estimate D2E/DX2                !
 ! D44   D(22,9,13,26)           0.0381         estimate D2E/DX2                !
 ! D45   D(8,10,11,12)           0.0717         estimate D2E/DX2                !
 ! D46   D(8,10,11,24)         179.7156         estimate D2E/DX2                !
 ! D47   D(23,10,11,12)       -179.6785         estimate D2E/DX2                !
 ! D48   D(23,10,11,24)         -0.0346         estimate D2E/DX2                !
 ! D49   D(10,11,12,13)         -0.5325         estimate D2E/DX2                !
 ! D50   D(10,11,12,25)        178.8811         estimate D2E/DX2                !
 ! D51   D(24,11,12,13)        179.8307         estimate D2E/DX2                !
 ! D52   D(24,11,12,25)         -0.7556         estimate D2E/DX2                !
 ! D53   D(11,12,13,9)           0.4833         estimate D2E/DX2                !
 ! D54   D(11,12,13,26)       -179.8617         estimate D2E/DX2                !
 ! D55   D(25,12,13,9)        -178.9239         estimate D2E/DX2                !
 ! D56   D(25,12,13,26)          0.7311         estimate D2E/DX2                !
 ! D57   D(11,12,25,27)         46.055          estimate D2E/DX2                !
 ! D58   D(11,12,25,29)        135.252          estimate D2E/DX2                !
 ! D59   D(11,12,25,30)       -133.9299         estimate D2E/DX2                !
 ! D60   D(11,12,25,31)        -44.7653         estimate D2E/DX2                !
 ! D61   D(13,12,25,27)       -134.5474         estimate D2E/DX2                !
 ! D62   D(13,12,25,29)        -45.3504         estimate D2E/DX2                !
 ! D63   D(13,12,25,30)         45.4676         estimate D2E/DX2                !
 ! D64   D(13,12,25,31)        134.6323         estimate D2E/DX2                !
 --------------------------------------------------------------------------------
 Trust Radius=3.00D-01 FncErr=1.00D-07 GrdErr=1.00D-06
 Number of steps in this run=    166 maximum allowed number of steps=    186.
 GradGradGradGradGradGradGradGradGradGradGradGradGradGradGradGradGradGrad

                          Input orientation:                          
 ---------------------------------------------------------------------
 Center     Atomic      Atomic             Coordinates (Angstroms)
 Number     Number       Type             X           Y           Z
 ---------------------------------------------------------------------
      1          6           0       -2.142490    1.960080   -0.023640
      2          6           0       -0.813520    1.223320    0.107600
      3          6           0        0.371790    2.189690   -0.005500
      4          7           0        1.631300    1.476120    0.103960
      5          6           0        2.834570    2.108890    0.003580
      6          8           0        2.864700    3.316450   -0.173750
      7          7           0        3.984560    1.374140    0.095560
      8          6           0        5.344370    1.834470    0.007290
      9          6           0        5.730420    3.182730   -0.184360
     10          6           0        6.360630    0.869990    0.122740
     11          6           0        7.707280    1.222870    0.060850
     12          6           0        8.089840    2.558850   -0.118020
     13          6           0        7.085480    3.534060   -0.245070
     14          1           0       -2.979290    1.234540    0.056040
     15          1           0       -2.205430    2.468260   -1.009550
     16          1           0       -2.246130    2.714890    0.784470
     17          1           0       -0.745280    0.460370   -0.698710
     18          1           0       -0.780930    0.706380    1.091470
     19          1           0        0.307900    2.952100    0.802030
     20          1           0        0.328310    2.700940   -0.992320
     21          1           0        1.614360    0.454570    0.252340
     22          1           0        5.026210    3.989000   -0.285370
     23          1           0        6.108420   -0.173090    0.267240
     24          1           0        8.452300    0.444550    0.159630
     25         16           0        9.853920    3.007860   -0.166370
     26          1           0        7.348420    4.574940   -0.386610
     27          9           0       10.177250    1.705990   -1.231720
     28          9           0       11.510690    3.430310   -0.205960
     29          9           0        9.581910    4.017890   -1.522190
     30          9           0        9.563500    4.317370    0.898090
     31          9           0       10.160350    2.006570    1.189380
 ---------------------------------------------------------------------
                    Distance matrix (angstroms):
                    1          2          3          4          5
     1  C    0.000000
     2  C    1.525189   0.000000
     3  C    2.524808   1.533500   0.000000
     4  N    3.806835   2.457858   1.451733   0.000000
     5  C    4.979359   3.755478   2.464122   1.363207   0.000000
     6  O    5.189819   4.241421   2.740893   2.232759   1.220883
     7  N    6.156158   4.800465   3.705056   2.355484   1.367770
     8  C    7.487978   6.188956   4.985268   3.731575   2.524761
     9  C    7.968903   6.837227   5.452801   4.449543   3.094253
    10  C    8.573959   7.182862   6.133862   4.768051   3.739274
    11  C    9.877681   8.520928   7.399227   6.081408   4.952940
    12  C   10.250269   9.005796   7.727693   6.552428   5.275899
    13  C    9.363860   8.237603   6.851157   5.839950   4.490342
    14  H    1.110401   2.166413   3.485088   4.617163   5.879473
    15  H    1.110958   2.176077   2.779889   4.116399   5.153366
    16  H    1.110640   2.176076   2.784491   4.126998   5.175958
    17  H    2.158019   1.112153   2.172311   2.706318   4.003268
    18  H    2.160805   1.111885   2.175389   2.717817   4.027701
    19  H    2.769521   2.174511   1.112410   2.101715   2.780753
    20  H    2.755371   2.167247   1.112241   2.097569   2.761101
    21  H    4.056679   2.550790   2.149675   1.032409   2.070644
    22  H    7.454883   6.473473   4.997947   4.241646   2.901998
    23  H    8.527165   7.063193   6.210156   4.774009   3.999380
    24  H   10.704205   9.298635   8.268460   6.898788   5.861166
    25  S   12.042926  10.819146   9.518722   8.368440   7.078722
    26  H    9.851224   8.837130   7.382955   6.521411   5.158342
    27  F   12.381438  11.082589   9.893666   8.652753   7.456758
    28  F   13.733322  12.524188  11.209568  10.075577   8.778674
    29  F   11.997574  10.887185   9.511518   8.503950   7.176270
    30  F   11.976502  10.857282   9.477923   8.463046   7.138349
    31  F   12.362583  11.054843   9.862919   8.614186   7.421836
                    6          7          8          9         10
     6  O    0.000000
     7  N    2.258137   0.000000
     8  C    2.894444   1.438325   0.000000
     9  C    2.868858   2.529304   1.415475   0.000000
    10  C    4.277219   2.429118   1.405822   2.416659   0.000000
    11  C    5.280975   3.725954   2.441366   2.794486   1.393492
    12  C    5.280071   4.278140   2.842188   2.441411   2.429070
    13  C    4.226988   3.794336   2.446172   1.401180   2.785312
    14  H    6.208009   6.965361   8.345394   8.928174   9.347270
    15  H    5.208090   6.382346   7.644288   8.010563   8.787146
    16  H    5.234562   6.410437   7.680810   8.048780   8.827109
    17  H    4.633005   4.882338   6.282549   7.043471   7.164951
    18  H    4.658741   4.914024   6.321972   7.082212   7.208820
    19  H    2.760819   4.062867   5.219841   5.516328   6.436782
    20  H    2.735358   4.038817   5.187567   5.483403   6.401923
    21  H    3.152025   2.547163   3.984614   4.957370   4.766178
    22  H    2.266475   2.840358   2.197470   1.075261   3.416936
    23  H    4.784671   2.633282   2.163711   3.407104   1.082823
    24  H    6.291282   4.563874   3.407978   3.876157   2.134817
    25  S    6.996033   6.098117   4.662944   4.127245   4.105746
    26  H    4.661851   4.668315   3.417828   2.144080   3.868051
    27  F    7.562160   6.342019   4.990830   4.801252   4.135220
    28  F    8.646800   7.807777   6.373043   5.785610   5.760764
    29  F    6.887033   6.398192   5.006334   4.161881   4.794968
    30  F    6.857449   6.358556   4.975879   4.141450   4.769064
    31  F    7.536605   6.303713   4.961917   4.784850   4.106995
                   11         12         13         14         15
    11  C    0.000000
    12  C    1.401139   0.000000
    13  C    2.412845   1.405673   0.000000
    14  H   10.686577  11.149427  10.328507   0.000000
    15  H   10.047814  10.334196   9.383036   1.804552   0.000000
    16  H   10.090596  10.376469   9.423902   1.805428   1.811350
    17  H    8.520804   9.099460   8.424616   2.481892   2.502056
    18  H    8.566134   9.142487   8.465372   2.486736   3.089936
    19  H    7.634816   7.846001   6.882637   3.783138   3.135722
    20  H    7.598885   7.811910   6.849220   3.766909   2.544460
    21  H    6.144154   6.818871   6.297923   4.663529   4.498679
    22  H    3.867749   3.385139   2.109310   8.472995   7.425207
    23  H    2.132523   3.396755   3.867825   9.198505   8.816293
    24  H    1.081940   2.163038   3.402507  11.459322  10.910985
    25  S    2.801050   1.820968   2.819103  12.957060  12.100828
    26  H    3.400790   2.164824   1.082868  10.863508   9.803173
    27  F    2.829292   2.514951   3.724830  13.227817  12.408109
    28  F    4.405668   3.531202   4.426599  14.657748  13.773280
    29  F    3.719192   2.515306   2.845574  12.962314  11.899812
    30  F    3.704383   2.509292   2.839185  12.943511  12.065074
    31  F    2.811640   2.510243   3.720981  13.211004  12.568252
                   16         17         18         19         20
    16  H    0.000000
    17  H    3.087917   0.000000
    18  H    2.505029   1.807356   0.000000
    19  H    2.565082   3.093562   2.512486   0.000000
    20  H    3.128085   2.501791   3.090447   1.811957   0.000000
    21  H    4.505063   2.544097   2.550483   2.871699   2.872156
    22  H    7.460217   6.777328   6.811326   4.951772   4.922311
    23  H    8.854742   6.950362   6.993995   6.610510   6.576945
    24  H   10.954509   9.237558   9.283826   8.545861   8.509847
    25  S   12.140887  10.914034  10.953493   9.595176   9.566276
    26  H    9.843099   9.084882   9.123421   7.322254   7.291139
    27  F   12.626293  11.006241  11.246250  10.153472   9.901962
    28  F   13.810969  12.620307  12.656502  11.258207  11.233698
    29  F   12.121098  10.953763  11.188645   9.620040   9.361850
    30  F   11.918398  11.121923  10.958279   9.356245   9.564268
    31  F   12.433279  11.175347  11.018697   9.905293  10.095097
                   21         22         23         24         25
    21  H    0.000000
    22  H    4.941867   0.000000
    23  H    4.537704   4.335845   0.000000
    24  H    6.838576   4.949671   2.426280   0.000000
    25  S    8.636258   4.927837   4.933075   2.939621   0.000000
    26  H    7.089792   2.397130   4.950647   4.310110   2.963406
    27  F    8.780181   5.713224   4.725802   2.550007   1.713003
    28  F   10.344197   6.508988   6.510985   4.289775   1.710239
    29  F    8.906630   4.720695   5.729878   4.107712   1.712425
    30  F    8.861549   4.700575   5.700858   4.096196   1.712377
    31  F    8.736172   5.697746   4.692483   2.533323   1.713050
                   26         27         28         29         30
    26  H    0.000000
    27  F    4.116718   0.000000
    28  F    4.320568   2.409051   0.000000
    29  F    2.566773   2.404929   2.407884   0.000000
    30  F    2.573592   3.425213   2.407769   2.438808   0.000000
    31  F    4.121555   2.439746   2.407785   3.425290   2.404345
                   31
    31  F    0.000000
 Stoichiometry    C10H12F5N2OS(1-)
 Framework group  C1[X(C10H12F5N2OS)]
 Deg. of freedom    87
 Full point group                 C1      NOp   1
 Largest Abelian subgroup         C1      NOp   1
 Largest concise Abelian subgroup C1      NOp   1
                         Standard orientation:                         
 ---------------------------------------------------------------------
 Center     Atomic      Atomic             Coordinates (Angstroms)
 Number     Number       Type             X           Y           Z
 ---------------------------------------------------------------------
      1          6           0       -8.225554   -0.451600    0.039387
      2          6           0       -6.991557    0.444081    0.004644
      3          6           0       -5.702249   -0.385862   -0.017717
      4          7           0       -4.534208    0.476085   -0.033791
      5          6           0       -3.265188   -0.021728   -0.023727
      6          8           0       -3.094783   -1.230597   -0.011324
      7          7           0       -2.208018    0.846124   -0.019265
      8          6           0       -0.803310    0.537676    0.001600
      9          6           0       -0.263102   -0.770645    0.008030
     10          6           0        0.094487    1.619404    0.014286
     11          6           0        1.473424    1.418737    0.023579
     12          6           0        2.008531    0.123812    0.019017
     13          6           0        1.123991   -0.968660    0.016336
     14          1           0       -9.140690    0.176923    0.061191
     15          1           0       -8.211898   -1.091040    0.947768
     16          1           0       -8.257903   -1.098286   -0.862983
     17          1           0       -6.995331    1.094947    0.906445
     18          1           0       -7.036318    1.088378   -0.900435
     19          1           0       -5.694238   -1.035532   -0.920668
     20          1           0       -5.668896   -1.026206    0.891088
     21          1           0       -4.669842    1.499507   -0.042691
     22          1           0       -0.869163   -1.658807    0.001414
     23          1           0       -0.277225    2.636426    0.012897
     24          1           0        2.123240    2.283785    0.028495
     25         16           0        3.812788   -0.121629    0.000557
     26          1           0        1.506056   -1.981886    0.015055
     27          9           0        4.006047    1.054363    1.231033
     28          9           0        5.507267   -0.352103   -0.022648
     29          9           0        3.682689   -1.328620    1.208301
     30          9           0        3.653104   -1.301474   -1.230176
     31          9           0        3.978071    1.080710   -1.208410
 ---------------------------------------------------------------------
 Rotational constants (GHZ):      1.3305602      0.0972417      0.0946254
 General basis read from cards:  (6D, 7F)
 There are   389 symmetry adapted cartesian basis functions of A   symmetry.
 There are   389 symmetry adapted basis functions of A   symmetry.
   389 basis functions,   680 primitive gaussians,   389 cartesian basis functions
    78 alpha electrons       78 beta electrons
       nuclear repulsion energy      1652.8121026579 Hartrees.
 NAtoms=   31 NActive=   31 NUniq=   31 SFac= 1.00D+00 NAtFMM=   60 NAOKFM=F Big=F
 Integral buffers will be    131072 words long.
 Raffenetti 2 integral format.
 Two-electron integral symmetry is turned on.
 ------------------------------------------------------------------------------
 Polarizable Continuum Model (PCM)
 =================================
 Model                : PCM (using non-symmetric T matrix).
 Atomic radii         : SMD-Coulomb.
 Polarization charges : Total charges.
 Charge compensation  : None.
 Solution method      : On-the-fly selection.
 Cavity type          : VdW (van der Waals Surface) (Alpha=1.000).
 Cavity algorithm     : GePol (No added spheres)
                        Default sphere list used, NSphG=   31.
                        Lebedev-Laikov grids with approx.  5.0 points / Ang**2.
                        Smoothing algorithm: York/Karplus (Gamma=1.0000).
                        Polarization charges: spherical gaussians, with
                                              point-specific exponents (IZeta= 3).
                        Self-potential: point-specific (ISelfS= 7).
                        Self-field    : sphere-specific E.n sum rule (ISelfD= 2).
 1st derivatives      : Analytical E(r).r(x)/FMM algorithm (CHGder, D1EAlg=3).
                        Cavity 1st derivative terms included.
 Solvent              : Water, Eps=  78.355300 Eps(inf)=   1.777849
 ------------------------------------------------------------------------------
 ------------------------------------------------------------------------------
 Atomic radii for non-electrostatic terms: SMD-CDS.
 ------------------------------------------------------------------------------
 Nuclear repulsion after PCM non-electrostatic terms =     1652.8229645188 Hartrees.
 One-electron integrals computed using PRISM.
 NBasis=   389 RedAO= T EigKep=  1.10D-06  NBF=   389
 NBsUse=   389 1.00D-06 EigRej= -1.00D+00 NBFU=   389
 ExpMin= 4.05D-02 ExpMax= 2.19D+04 ExpMxC= 3.30D+03 IAcc=3 IRadAn=         5 AccDes= 0.00D+00
 Harris functional with IExCor= 1009 and IRadAn=       5 diagonalized for initial guess.
 HarFok:  IExCor= 1009 AccDes= 0.00D+00 IRadAn=         5 IDoV= 1 UseB2=F ITyADJ=14
 ICtDFT=  3500011 ScaDFX=  1.000000  1.000000  1.000000  1.000000
 FoFCou: FMM=F IPFlag=           0 FMFlag=      100000 FMFlg1=           0
         NFxFlg=           0 DoJE=T BraDBF=F KetDBF=T FulRan=T
         wScrn=  0.000000 ICntrl=     500 IOpCl=  0 I1Cent=   200000004 NGrid=           0
         NMat0=    1 NMatS0=      1 NMatT0=    0 NMatD0=    1 NMtDS0=    0 NMtDT0=    0
 Petite list used in FoFCou.
 Requested convergence on RMS density matrix=1.00D-08 within 128 cycles.
 Requested convergence on MAX density matrix=1.00D-06.
 Requested convergence on             energy=1.00D-06.
 No special actions if energy rises.
 Inv3:  Mode=1 IEnd=    18362028.
 Iteration    1 A*A^-1 deviation from unit magnitude is 8.66D-15 for   2450.
 Iteration    1 A*A^-1 deviation from orthogonality  is 3.26D-15 for   1149    284.
 Iteration    1 A^-1*A deviation from unit magnitude is 8.55D-15 for   2450.
 Iteration    1 A^-1*A deviation from orthogonality  is 1.90D-11 for   2429   2387.
 Error on total polarization charges =  0.05581
 SCF Done:  E(RM062X) =  -1470.02324582     A.U. after   18 cycles
            NFock= 18  Conv=0.79D-08     -V/T= 2.0075
 SMD-CDS (non-electrostatic) energy       (kcal/mol) =       6.82
 (included in total energy above)

 **********************************************************************

            Population analysis using the SCF density.

 **********************************************************************

 Orbital symmetries:
       Occupied  (A) (A) (A) (A) (A) (A) (A) (A) (A) (A) (A) (A)
                 (A) (A) (A) (A) (A) (A) (A) (A) (A) (A) (A) (A)
                 (A) (A) (A) (A) (A) (A) (A) (A) (A) (A) (A) (A)
                 (A) (A) (A) (A) (A) (A) (A) (A) (A) (A) (A) (A)
                 (A) (A) (A) (A) (A) (A) (A) (A) (A) (A) (A) (A)
                 (A) (A) (A) (A) (A) (A) (A) (A) (A) (A) (A) (A)
                 (A) (A) (A) (A) (A) (A)
       Virtual   (A) (A) (A) (A) (A) (A) (A) (A) (A) (A) (A) (A)
                 (A) (A) (A) (A) (A) (A) (A) (A) (A) (A) (A) (A)
                 (A) (A) (A) (A) (A) (A) (A) (A) (A) (A) (A) (A)
                 (A) (A) (A) (A) (A) (A) (A) (A) (A) (A) (A) (A)
                 (A) (A) (A) (A) (A) (A) (A) (A) (A) (A) (A) (A)
                 (A) (A) (A) (A) (A) (A) (A) (A) (A) (A) (A) (A)
                 (A) (A) (A) (A) (A) (A) (A) (A) (A) (A) (A) (A)
                 (A) (A) (A) (A) (A) (A) (A) (A) (A) (A) (A) (A)
                 (A) (A) (A) (A) (A) (A) (A) (A) (A) (A) (A) (A)
                 (A) (A) (A) (A) (A) (A) (A) (A) (A) (A) (A) (A)
                 (A) (A) (A) (A) (A) (A) (A) (A) (A) (A) (A) (A)
                 (A) (A) (A) (A) (A) (A) (A) (A) (A) (A) (A) (A)
                 (A) (A) (A) (A) (A) (A) (A) (A) (A) (A) (A) (A)
                 (A) (A) (A) (A) (A) (A) (A) (A) (A) (A) (A) (A)
                 (A) (A) (A) (A) (A) (A) (A) (A) (A) (A) (A) (A)
                 (A) (A) (A) (A) (A) (A) (A) (A) (A) (A) (A) (A)
                 (A) (A) (A) (A) (A) (A) (A) (A) (A) (A) (A) (A)
                 (A) (A) (A) (A) (A) (A) (A) (A) (A) (A) (A) (A)
                 (A) (A) (A) (A) (A) (A) (A) (A) (A) (A) (A) (A)
                 (A) (A) (A) (A) (A) (A) (A) (A) (A) (A) (A) (A)
                 (A) (A) (A) (A) (A) (A) (A) (A) (A) (A) (A) (A)
                 (A) (A) (A) (A) (A) (A) (A) (A) (A) (A) (A) (A)
                 (A) (A) (A) (A) (A) (A) (A) (A) (A) (A) (A) (A)
                 (A) (A) (A) (A) (A) (A) (A) (A) (A) (A) (A) (A)
                 (A) (A) (A) (A) (A) (A) (A) (A) (A) (A) (A) (A)
                 (A) (A) (A) (A) (A) (A) (A) (A) (A) (A) (A)
 The electronic state is 1-A.
 Alpha  occ. eigenvalues --  -90.33256 -25.33204 -25.30784 -25.30780 -25.30762
 Alpha  occ. eigenvalues --  -25.30751 -19.58829 -14.76239 -14.70669 -10.64626
 Alpha  occ. eigenvalues --  -10.60160 -10.59648 -10.57342 -10.57306 -10.57185
 Alpha  occ. eigenvalues --  -10.55089 -10.54777 -10.54165 -10.53231  -8.61967
 Alpha  occ. eigenvalues --   -6.54299  -6.54277  -6.53864  -1.44185  -1.36763
 Alpha  occ. eigenvalues --   -1.36606  -1.36201  -1.33741  -1.15666  -1.00876
 Alpha  occ. eigenvalues --   -0.98928  -0.95682  -0.91701  -0.86891  -0.85038
 Alpha  occ. eigenvalues --   -0.82757  -0.76165  -0.72105  -0.71445  -0.70765
 Alpha  occ. eigenvalues --   -0.69130  -0.66898  -0.66039  -0.63810  -0.60698
 Alpha  occ. eigenvalues --   -0.60012  -0.59753  -0.58619  -0.56001  -0.55198
 Alpha  occ. eigenvalues --   -0.54388  -0.54249  -0.54134  -0.54089  -0.53926
 Alpha  occ. eigenvalues --   -0.53253  -0.53243  -0.52635  -0.51739  -0.51187
 Alpha  occ. eigenvalues --   -0.50882  -0.49587  -0.48925  -0.48029  -0.45520
 Alpha  occ. eigenvalues --   -0.45424  -0.43837  -0.43714  -0.41372  -0.41147
 Alpha  occ. eigenvalues --   -0.38977  -0.38775  -0.35254  -0.35037  -0.31509
 Alpha  occ. eigenvalues --   -0.30565  -0.27970  -0.23796
 Alpha virt. eigenvalues --   -0.09640   0.00067   0.01766   0.02155   0.02852
 Alpha virt. eigenvalues --    0.03136   0.03696   0.04041   0.04084   0.04730
 Alpha virt. eigenvalues --    0.05075   0.05376   0.05986   0.06460   0.07260
 Alpha virt. eigenvalues --    0.07652   0.07886   0.08000   0.08092   0.09602
 Alpha virt. eigenvalues --    0.09836   0.10084   0.10341   0.10522   0.10695
 Alpha virt. eigenvalues --    0.12331   0.12481   0.13164   0.13226   0.14487
 Alpha virt. eigenvalues --    0.14898   0.15000   0.15418   0.15726   0.16869
 Alpha virt. eigenvalues --    0.16936   0.17432   0.18691   0.19564   0.19663
 Alpha virt. eigenvalues --    0.19818   0.21071   0.21317   0.21492   0.21975
 Alpha virt. eigenvalues --    0.23000   0.23366   0.23874   0.24195   0.24330
 Alpha virt. eigenvalues --    0.24588   0.24805   0.25385   0.25588   0.26218
 Alpha virt. eigenvalues --    0.26449   0.26949   0.27461   0.27658   0.27907
 Alpha virt. eigenvalues --    0.28522   0.29805   0.29836   0.30141   0.30653
 Alpha virt. eigenvalues --    0.30730   0.30987   0.31586   0.32389   0.32579
 Alpha virt. eigenvalues --    0.32919   0.33249   0.33431   0.33528   0.34048
 Alpha virt. eigenvalues --    0.34507   0.34918   0.35503   0.36359   0.36614
 Alpha virt. eigenvalues --    0.36998   0.37385   0.37910   0.38461   0.38682
 Alpha virt. eigenvalues --    0.39180   0.39336   0.39950   0.40308   0.41036
 Alpha virt. eigenvalues --    0.41486   0.42089   0.43517   0.46037   0.46860
 Alpha virt. eigenvalues --    0.47808   0.47926   0.48399   0.48851   0.49491
 Alpha virt. eigenvalues --    0.52964   0.53667   0.53967   0.56460   0.57294
 Alpha virt. eigenvalues --    0.57490   0.58564   0.59677   0.59790   0.62297
 Alpha virt. eigenvalues --    0.67270   0.67898   0.70469   0.70522   0.71219
 Alpha virt. eigenvalues --    0.72147   0.74274   0.74744   0.75850   0.76843
 Alpha virt. eigenvalues --    0.77570   0.77986   0.79722   0.80124   0.81079
 Alpha virt. eigenvalues --    0.81780   0.83148   0.84174   0.85573   0.85705
 Alpha virt. eigenvalues --    0.85824   0.88829   0.89190   0.89738   0.89885
 Alpha virt. eigenvalues --    0.90083   0.92023   0.92494   0.95171   0.98094
 Alpha virt. eigenvalues --    0.98938   0.99463   1.00682   1.01126   1.02750
 Alpha virt. eigenvalues --    1.03612   1.05132   1.06612   1.06653   1.06860
 Alpha virt. eigenvalues --    1.10884   1.12454   1.12725   1.12807   1.13664
 Alpha virt. eigenvalues --    1.14202   1.15432   1.15836   1.18505   1.19312
 Alpha virt. eigenvalues --    1.22629   1.23365   1.24921   1.26582   1.28685
 Alpha virt. eigenvalues --    1.31337   1.32088   1.34680   1.36801   1.37118
 Alpha virt. eigenvalues --    1.39951   1.41195   1.41819   1.42676   1.45365
 Alpha virt. eigenvalues --    1.47850   1.48019   1.48588   1.49751   1.50313
 Alpha virt. eigenvalues --    1.50663   1.52110   1.53155   1.54980   1.56403
 Alpha virt. eigenvalues --    1.56827   1.58715   1.60319   1.61809   1.62271
 Alpha virt. eigenvalues --    1.63769   1.66143   1.66437   1.70028   1.70909
 Alpha virt. eigenvalues --    1.71117   1.74430   1.74673   1.76097   1.77323
 Alpha virt. eigenvalues --    1.77907   1.80444   1.81377   1.83730   1.83915
 Alpha virt. eigenvalues --    1.84133   1.84366   1.86520   1.86634   1.87387
 Alpha virt. eigenvalues --    1.88103   1.88297   1.88706   1.89458   1.90104
 Alpha virt. eigenvalues --    1.90811   1.91328   1.91645   1.92544   1.92604
 Alpha virt. eigenvalues --    1.93933   1.95236   1.96003   1.97113   1.97634
 Alpha virt. eigenvalues --    1.97898   1.98489   1.98547   1.98704   1.99786
 Alpha virt. eigenvalues --    2.00251   2.02755   2.02898   2.03970   2.04869
 Alpha virt. eigenvalues --    2.05479   2.05718   2.07433   2.07511   2.08277
 Alpha virt. eigenvalues --    2.13733   2.14333   2.14952   2.16524   2.16753
 Alpha virt. eigenvalues --    2.17175   2.20908   2.21466   2.21704   2.23067
 Alpha virt. eigenvalues --    2.23882   2.26903   2.26934   2.28090   2.28497
 Alpha virt. eigenvalues --    2.28898   2.29090   2.31632   2.33753   2.33974
 Alpha virt. eigenvalues --    2.38119   2.40514   2.41325   2.42323   2.44766
 Alpha virt. eigenvalues --    2.49089   2.54453   2.59513   2.61143   2.66865
 Alpha virt. eigenvalues --    2.67027   2.68368   2.70680   2.74374   2.76071
 Alpha virt. eigenvalues --    2.77407   2.77594   2.78780   2.80143   2.81271
 Alpha virt. eigenvalues --    2.82062   2.83653   2.85769   2.89741   2.96455
 Alpha virt. eigenvalues --    3.01823   3.11532   3.14698   3.19221   3.29744
 Alpha virt. eigenvalues --    3.35280   3.42815   4.17650   4.20647   4.27211
 Alpha virt. eigenvalues --    4.28808   4.33649   4.41039   4.43177   4.43727
 Alpha virt. eigenvalues --    4.45489   4.51624   4.53941   4.60103   4.67074
 Alpha virt. eigenvalues --    4.78131   5.73463   5.77322   5.89103   7.10551
 Alpha virt. eigenvalues --    8.04610
          Condensed to atoms (all electrons):
               1          2          3          4          5          6
     1  C    5.667262  -0.094806   0.078791  -0.007361  -0.068967  -0.005122
     2  C   -0.094806   6.227177  -0.497234  -0.062319   0.184628   0.023677
     3  C    0.078791  -0.497234   7.341504   0.285296  -0.661648  -0.114520
     4  N   -0.007361  -0.062319   0.285296   7.728414   0.470136  -0.251775
     5  C   -0.068967   0.184628  -0.661648   0.470136   7.089321   0.404521
     6  O   -0.005122   0.023677  -0.114520  -0.251775   0.404521   8.787208
     7  N   -0.004312   0.007599  -0.122958  -0.332873   0.329407  -0.121807
     8  C   -0.012471   0.010913  -0.557585  -0.228626  -0.942003  -0.202298
     9  C    0.000611   0.009114   0.021035   0.042440   0.980791   0.200145
    10  C   -0.002636   0.004812  -0.159190  -0.082856  -1.825955  -0.144504
    11  C    0.000328  -0.001646   0.034810   0.015535   0.355164   0.013257
    12  C   -0.000251   0.001384  -0.046434  -0.004698  -0.704225   0.003028
    13  C   -0.000635   0.003701  -0.052206  -0.007224  -0.347490   0.220636
    14  H    0.414066  -0.088850   0.027370   0.000502  -0.002305   0.000006
    15  H    0.421397  -0.067192  -0.008372   0.000349  -0.001975  -0.000055
    16  H    0.414749  -0.065156  -0.006041   0.000330   0.000218  -0.000049
    17  H   -0.038610   0.428727  -0.077626   0.005794  -0.003080  -0.000208
    18  H   -0.030086   0.418657  -0.063790   0.005750  -0.014335  -0.000185
    19  H   -0.000324  -0.036119   0.410162  -0.055623  -0.013978   0.003046
    20  H    0.005996  -0.046682   0.446367  -0.059471  -0.038770   0.003718
    21  H   -0.004495   0.004836  -0.087003   0.244435   0.032197   0.010955
    22  H   -0.000004   0.000059   0.002834   0.000709   0.002478  -0.003063
    23  H   -0.000000   0.000036  -0.000819  -0.000115  -0.020342   0.000129
    24  H    0.000000   0.000000   0.000033   0.000021   0.004358  -0.000002
    25  S   -0.000004   0.000013  -0.001404   0.000077  -0.063394   0.000548
    26  H   -0.000000   0.000001  -0.000018  -0.000008  -0.001364   0.000321
    27  F   -0.000000   0.000000  -0.000005   0.000000  -0.001079  -0.000001
    28  F   -0.000000  -0.000000  -0.000000  -0.000000  -0.000051   0.000000
    29  F   -0.000000   0.000000  -0.000009  -0.000000  -0.001458   0.000001
    30  F   -0.000000   0.000000  -0.000009  -0.000000  -0.001511   0.000001
    31  F   -0.000000   0.000000  -0.000005   0.000000  -0.001176  -0.000000
               7          8          9         10         11         12
     1  C   -0.004312  -0.012471   0.000611  -0.002636   0.000328  -0.000251
     2  C    0.007599   0.010913   0.009114   0.004812  -0.001646   0.001384
     3  C   -0.122958  -0.557585   0.021035  -0.159190   0.034810  -0.046434
     4  N   -0.332873  -0.228626   0.042440  -0.082856   0.015535  -0.004698
     5  C    0.329407  -0.942003   0.980791  -1.825955   0.355164  -0.704225
     6  O   -0.121807  -0.202298   0.200145  -0.144504   0.013257   0.003028
     7  N    7.806377   0.471497  -0.207825  -0.172048   0.078846   0.002584
     8  C    0.471497  12.383444   0.218270  -1.951270   1.662162  -4.251596
     9  C   -0.207825   0.218270  16.058987  -2.994097  -0.260884  -1.717642
    10  C   -0.172048  -1.951270  -2.994097  16.826844  -3.591337   1.847650
    11  C    0.078846   1.662162  -0.260884  -3.591337  22.714761  -4.426678
    12  C    0.002584  -4.251596  -1.717642   1.847650  -4.426678  20.375703
    13  C   -0.076258  -0.169408  -6.773444  -1.376397 -10.657069  -3.914876
    14  H    0.000008  -0.000050   0.000006  -0.000003   0.000000  -0.000000
    15  H    0.000014  -0.000024  -0.000042   0.000002   0.000000  -0.000000
    16  H    0.000010   0.000017  -0.000036   0.000001   0.000000  -0.000000
    17  H   -0.000120  -0.000234  -0.000176   0.000128   0.000002  -0.000000
    18  H   -0.000028  -0.001101  -0.000196   0.000094   0.000007  -0.000003
    19  H   -0.001088  -0.001907   0.002274  -0.000504  -0.000035   0.000014
    20  H   -0.000494  -0.006202   0.001912  -0.000692  -0.000005  -0.000043
    21  H    0.027912   0.019248  -0.003813   0.004569  -0.000367   0.000034
    22  H   -0.004986  -0.083472   0.349243   0.009085   0.001128   0.087045
    23  H    0.002017  -0.134848   0.001792   0.492187  -0.138285   0.112554
    24  H    0.001036   0.045602  -0.020981  -0.146925   0.447554  -0.058452
    25  S    0.000868  -0.481698  -0.852083   0.291406  -0.222532  -0.416847
    26  H   -0.000815   0.008843  -0.118873  -0.035129   0.035098  -0.032656
    27  F   -0.000026  -0.024987   0.007340   0.003550  -0.119231   0.111326
    28  F   -0.000006   0.004451  -0.011829   0.002255   0.067054  -0.183120
    29  F   -0.000062  -0.016443  -0.035802   0.035273  -0.039521   0.118321
    30  F   -0.000059  -0.018460  -0.034364   0.037813  -0.039735   0.107130
    31  F   -0.000026  -0.027913   0.003987   0.009021  -0.124256   0.100827
              13         14         15         16         17         18
     1  C   -0.000635   0.414066   0.421397   0.414749  -0.038610  -0.030086
     2  C    0.003701  -0.088850  -0.067192  -0.065156   0.428727   0.418657
     3  C   -0.052206   0.027370  -0.008372  -0.006041  -0.077626  -0.063790
     4  N   -0.007224   0.000502   0.000349   0.000330   0.005794   0.005750
     5  C   -0.347490  -0.002305  -0.001975   0.000218  -0.003080  -0.014335
     6  O    0.220636   0.000006  -0.000055  -0.000049  -0.000208  -0.000185
     7  N   -0.076258   0.000008   0.000014   0.000010  -0.000120  -0.000028
     8  C   -0.169408  -0.000050  -0.000024   0.000017  -0.000234  -0.001101
     9  C   -6.773444   0.000006  -0.000042  -0.000036  -0.000176  -0.000196
    10  C   -1.376397  -0.000003   0.000002   0.000001   0.000128   0.000094
    11  C  -10.657069   0.000000   0.000000   0.000000   0.000002   0.000007
    12  C   -3.914876  -0.000000  -0.000000  -0.000000  -0.000000  -0.000003
    13  C   29.047862   0.000000  -0.000003  -0.000003  -0.000013  -0.000017
    14  H    0.000000   0.484232  -0.024089  -0.023952  -0.003050  -0.002972
    15  H   -0.000003  -0.024089   0.488825  -0.028446  -0.004605   0.003810
    16  H   -0.000003  -0.023952  -0.028446   0.488546   0.003830  -0.004593
    17  H   -0.000013  -0.003050  -0.004605   0.003830   0.494434  -0.031072
    18  H   -0.000017  -0.002972   0.003810  -0.004593  -0.031072   0.493913
    19  H    0.000547  -0.000063  -0.000320   0.002603   0.003794  -0.005565
    20  H    0.000434  -0.000055   0.002698  -0.000324  -0.005619   0.003828
    21  H    0.000703  -0.000003  -0.000000  -0.000001   0.000459   0.000489
    22  H   -0.059904  -0.000000  -0.000000   0.000000  -0.000000  -0.000000
    23  H   -0.007383  -0.000000  -0.000000  -0.000000  -0.000000  -0.000000
    24  H    0.025080  -0.000000   0.000000   0.000000   0.000000   0.000000
    25  S    0.524232  -0.000000  -0.000000  -0.000000  -0.000000  -0.000000
    26  H    0.437525  -0.000000   0.000000   0.000000   0.000000   0.000000
    27  F   -0.026478  -0.000000  -0.000000  -0.000000   0.000000  -0.000000
    28  F    0.078561  -0.000000   0.000000   0.000000   0.000000   0.000000
    29  F   -0.087689  -0.000000  -0.000000  -0.000000   0.000000  -0.000000
    30  F   -0.089549  -0.000000   0.000000  -0.000000  -0.000000   0.000000
    31  F   -0.021959  -0.000000  -0.000000  -0.000000  -0.000000   0.000000
              19         20         21         22         23         24
     1  C   -0.000324   0.005996  -0.004495  -0.000004  -0.000000   0.000000
     2  C   -0.036119  -0.046682   0.004836   0.000059   0.000036   0.000000
     3  C    0.410162   0.446367  -0.087003   0.002834  -0.000819   0.000033
     4  N   -0.055623  -0.059471   0.244435   0.000709  -0.000115   0.000021
     5  C   -0.013978  -0.038770   0.032197   0.002478  -0.020342   0.004358
     6  O    0.003046   0.003718   0.010955  -0.003063   0.000129  -0.000002
     7  N   -0.001088  -0.000494   0.027912  -0.004986   0.002017   0.001036
     8  C   -0.001907  -0.006202   0.019248  -0.083472  -0.134848   0.045602
     9  C    0.002274   0.001912  -0.003813   0.349243   0.001792  -0.020981
    10  C   -0.000504  -0.000692   0.004569   0.009085   0.492187  -0.146925
    11  C   -0.000035  -0.000005  -0.000367   0.001128  -0.138285   0.447554
    12  C    0.000014  -0.000043   0.000034   0.087045   0.112554  -0.058452
    13  C    0.000547   0.000434   0.000703  -0.059904  -0.007383   0.025080
    14  H   -0.000063  -0.000055  -0.000003  -0.000000  -0.000000  -0.000000
    15  H   -0.000320   0.002698  -0.000000  -0.000000  -0.000000   0.000000
    16  H    0.002603  -0.000324  -0.000001   0.000000  -0.000000   0.000000
    17  H    0.003794  -0.005619   0.000459  -0.000000  -0.000000   0.000000
    18  H   -0.005565   0.003828   0.000489  -0.000000  -0.000000   0.000000
    19  H    0.513701  -0.041967   0.002148  -0.000000  -0.000000  -0.000000
    20  H   -0.041967   0.514190   0.002174  -0.000000   0.000000  -0.000000
    21  H    0.002148   0.002174   0.279329   0.000001   0.000003  -0.000000
    22  H   -0.000000  -0.000000   0.000001   0.434945  -0.000106   0.000012
    23  H   -0.000000   0.000000   0.000003  -0.000106   0.445155  -0.003773
    24  H   -0.000000  -0.000000  -0.000000   0.000012  -0.003773   0.427465
    25  S    0.000000  -0.000000   0.000002   0.001104   0.001477   0.006429
    26  H   -0.000000  -0.000000   0.000000  -0.004360   0.000012  -0.000123
    27  F    0.000000  -0.000000   0.000000   0.000014   0.000021   0.000879
    28  F   -0.000000  -0.000000   0.000000  -0.000001  -0.000000   0.000002
    29  F   -0.000000   0.000000   0.000000   0.000018   0.000013   0.000097
    30  F    0.000000  -0.000000   0.000000   0.000018   0.000013   0.000101
    31  F    0.000000  -0.000000   0.000000   0.000014   0.000022   0.000699
              25         26         27         28         29         30
     1  C   -0.000004  -0.000000  -0.000000  -0.000000  -0.000000  -0.000000
     2  C    0.000013   0.000001   0.000000  -0.000000   0.000000   0.000000
     3  C   -0.001404  -0.000018  -0.000005  -0.000000  -0.000009  -0.000009
     4  N    0.000077  -0.000008   0.000000  -0.000000  -0.000000  -0.000000
     5  C   -0.063394  -0.001364  -0.001079  -0.000051  -0.001458  -0.001511
     6  O    0.000548   0.000321  -0.000001   0.000000   0.000001   0.000001
     7  N    0.000868  -0.000815  -0.000026  -0.000006  -0.000062  -0.000059
     8  C   -0.481698   0.008843  -0.024987   0.004451  -0.016443  -0.018460
     9  C   -0.852083  -0.118873   0.007340  -0.011829  -0.035802  -0.034364
    10  C    0.291406  -0.035129   0.003550   0.002255   0.035273   0.037813
    11  C   -0.222532   0.035098  -0.119231   0.067054  -0.039521  -0.039735
    12  C   -0.416847  -0.032656   0.111326  -0.183120   0.118321   0.107130
    13  C    0.524232   0.437525  -0.026478   0.078561  -0.087689  -0.089549
    14  H   -0.000000  -0.000000  -0.000000  -0.000000  -0.000000  -0.000000
    15  H   -0.000000   0.000000  -0.000000   0.000000  -0.000000   0.000000
    16  H   -0.000000   0.000000  -0.000000   0.000000  -0.000000  -0.000000
    17  H   -0.000000   0.000000   0.000000   0.000000   0.000000  -0.000000
    18  H   -0.000000   0.000000  -0.000000   0.000000  -0.000000   0.000000
    19  H    0.000000  -0.000000   0.000000  -0.000000  -0.000000   0.000000
    20  H   -0.000000  -0.000000  -0.000000  -0.000000   0.000000  -0.000000
    21  H    0.000002   0.000000   0.000000   0.000000   0.000000   0.000000
    22  H    0.001104  -0.004360   0.000014  -0.000001   0.000018   0.000018
    23  H    0.001477   0.000012   0.000021  -0.000000   0.000013   0.000013
    24  H    0.006429  -0.000123   0.000879   0.000002   0.000097   0.000101
    25  S   14.822786   0.009702   0.048427   0.129530   0.035172   0.041547
    26  H    0.009702   0.430920   0.000083   0.000006   0.001217   0.001103
    27  F    0.048427   0.000083   9.527593  -0.026261  -0.004084  -0.017675
    28  F    0.129530   0.000006  -0.026261   9.442734  -0.025670  -0.025284
    29  F    0.035172   0.001217  -0.004084  -0.025670   9.520394  -0.026408
    30  F    0.041547   0.001103  -0.017675  -0.025284  -0.026408   9.525257
    31  F    0.056561   0.000080  -0.024195  -0.026068  -0.017849  -0.003526
              31
     1  C   -0.000000
     2  C    0.000000
     3  C   -0.000005
     4  N    0.000000
     5  C   -0.001176
     6  O   -0.000000
     7  N   -0.000026
     8  C   -0.027913
     9  C    0.003987
    10  C    0.009021
    11  C   -0.124256
    12  C    0.100827
    13  C   -0.021959
    14  H   -0.000000
    15  H   -0.000000
    16  H   -0.000000
    17  H   -0.000000
    18  H    0.000000
    19  H    0.000000
    20  H   -0.000000
    21  H    0.000000
    22  H    0.000014
    23  H    0.000022
    24  H    0.000699
    25  S    0.056561
    26  H    0.000080
    27  F   -0.024195
    28  F   -0.026068
    29  F   -0.017849
    30  F   -0.003526
    31  F    9.532701
 Mulliken charges:
               1
     1  C   -0.733115
     2  C   -0.365332
     3  C   -0.191324
     4  N   -0.706840
     5  C    0.861888
     6  O   -0.827606
     7  N   -0.682384
     8  C    0.288151
     9  C    1.134141
    10  C   -1.081147
    11  C    0.195876
    12  C   -1.110077
    13  C   -0.671273
    14  H    0.219202
    15  H    0.218028
    16  H    0.218296
    17  H    0.227244
    18  H    0.227397
    19  H    0.219206
    20  H    0.219009
    21  H    0.466191
    22  H    0.267190
    23  H    0.250242
    24  H    0.270889
    25  S    2.068081
    26  H    0.268436
    27  F   -0.455213
    28  F   -0.426301
    29  F   -0.455512
    30  F   -0.456403
    31  F   -0.456940
 Sum of Mulliken charges =  -1.00000
 Mulliken charges with hydrogens summed into heavy atoms:
               1
     1  C   -0.077588
     2  C    0.089308
     3  C    0.246891
     4  N   -0.240649
     5  C    0.861888
     6  O   -0.827606
     7  N   -0.682384
     8  C    0.288151
     9  C    1.401332
    10  C   -0.830905
    11  C    0.466765
    12  C   -1.110077
    13  C   -0.402838
    25  S    2.068081
    27  F   -0.455213
    28  F   -0.426301
    29  F   -0.455512
    30  F   -0.456403
    31  F   -0.456940
 Electronic spatial extent (au):  <R**2>=          10685.6959
 Charge=             -1.0000 electrons
 Dipole moment (field-independent basis, Debye):
    X=              0.4233    Y=              2.0573    Z=              0.0715  Tot=              2.1016
 Quadrupole moment (field-independent basis, Debye-Ang):
   XX=           -150.5001   YY=           -123.9270   ZZ=           -127.0841
   XY=             -7.5633   XZ=             -0.0813   YZ=              0.0360
 Traceless Quadrupole moment (field-independent basis, Debye-Ang):
   XX=            -16.6631   YY=              9.9100   ZZ=              6.7530
   XY=             -7.5633   XZ=             -0.0813   YZ=              0.0360
 Octapole moment (field-independent basis, Debye-Ang**2):
  XXX=            -78.4075  YYY=              4.3496  ZZZ=             -0.2989  XYY=             59.3101
  XXY=             49.4079  XXZ=             -0.0652  XZZ=             29.2229  YZZ=             -5.9713
  YYZ=              0.0760  XYZ=              0.1298
 Hexadecapole moment (field-independent basis, Debye-Ang**3):
 XXXX=         -12183.5752 YYYY=           -709.1647 ZZZZ=           -337.3751 XXXY=           -264.6599
 XXXZ=              0.9542 YYYX=            -43.1745 YYYZ=              0.2371 ZZZX=             -0.8694
 ZZZY=             -0.0763 XXYY=          -2260.3665 XXZZ=          -2168.7538 YYZZ=           -191.5008
 XXYZ=              0.2575 YYXZ=              0.4919 ZZXY=              2.4101
 N-N= 1.652822964519D+03 E-N=-6.788708454457D+03  KE= 1.459018852406D+03
 D1PCM: PCM CHGder 1st derivatives, ID1Alg=3 FixD1E=F DoIter=F DoCFld=F I1PDM=0.
 Calling FoFJK, ICntrl=      2127 FMM=F ISym2X=0 I1Cent= 0 IOpClX= 0 NMat=1 NMatS=1 NMatT=0.
 ***** Axes restored to original set *****
 -------------------------------------------------------------------
 Center     Atomic                   Forces (Hartrees/Bohr)
 Number     Number              X              Y              Z
 -------------------------------------------------------------------
      1        6          -0.005345741    0.001227027   -0.000273618
      2        6           0.004031134   -0.004041058    0.000434251
      3        6          -0.002853518    0.002640201   -0.001169773
      4        7           0.001726284   -0.029576210    0.004944286
      5        6           0.048416221   -0.031577335    0.003060793
      6        8          -0.016379396    0.070270544   -0.009820245
      7        7           0.024935222   -0.028292794    0.003636998
      8        6          -0.072062723    0.003812803    0.000709766
      9        6           0.024880711    0.002302397   -0.000574912
     10        6           0.013823394    0.003639245   -0.000673907
     11        6           0.002156715   -0.001641631    0.000669206
     12        6          -0.019671919   -0.001624606   -0.000124043
     13        6           0.004905551   -0.002817643    0.000803507
     14        1           0.005995557    0.008962740   -0.000962300
     15        1          -0.001246058   -0.003358307    0.009662946
     16        1          -0.000974877   -0.005727522   -0.008302314
     17        1           0.001353323    0.004950478    0.008730880
     18        1           0.001595545    0.002530105   -0.009478443
     19        1          -0.000784260   -0.004304874   -0.009003523
     20        1          -0.000777303   -0.001133107    0.009906266
     21        1           0.000756195    0.016906709   -0.002559226
     22        1          -0.006023210   -0.001011977    0.000106610
     23        1          -0.001980256   -0.001190042    0.000108839
     24        1           0.001805442   -0.002032240    0.000226875
     25       16          -0.014058498   -0.002792330    0.000388923
     26        1           0.000239395    0.002254954   -0.000322225
     27        9           0.008423836    0.037456926    0.030436803
     28        9          -0.059377385   -0.015227732    0.001334493
     29        9           0.023200581   -0.020668641    0.037772065
     30        9           0.024055250   -0.028843026   -0.031148510
     31        9           0.009234787    0.028906945   -0.038520465
 -------------------------------------------------------------------
 Cartesian Forces:  Max     0.072062723 RMS     0.018595003

 GradGradGradGradGradGradGradGradGradGradGradGradGradGradGradGradGradGrad
 Berny optimization.
 FormGI is forming the generalized inverse of G from B-inverse, IUseBI=4.
 GSVD:  received Info=                   1 from GESDD.
 Internal  Forces:  Max     0.070524070 RMS     0.013879315
 Search for a local minimum.
 Step number   1 out of a maximum of  166
 All quantities printed in internal units (Hartrees-Bohrs-Radians)
 Mixed Optimization -- RFO/linear search
 Second derivative matrix not updated -- first step.
 ITU=  0
     Eigenvalues ---    0.00230   0.00323   0.00433   0.01007   0.01173
     Eigenvalues ---    0.01185   0.01477   0.01812   0.01951   0.01980
     Eigenvalues ---    0.02040   0.02046   0.02085   0.02102   0.02118
     Eigenvalues ---    0.02129   0.02158   0.02178   0.03751   0.04457
     Eigenvalues ---    0.04932   0.05555   0.05687   0.05795   0.08042
     Eigenvalues ---    0.08693   0.08696   0.09155   0.11982   0.12648
     Eigenvalues ---    0.12862   0.12930   0.12935   0.13034   0.15999
     Eigenvalues ---    0.16000   0.16000   0.16000   0.16000   0.16000
     Eigenvalues ---    0.16000   0.16000   0.16742   0.21962   0.22000
     Eigenvalues ---    0.22000   0.22002   0.22958   0.24000   0.24532
     Eigenvalues ---    0.24999   0.25000   0.25000   0.25000   0.25000
     Eigenvalues ---    0.25000   0.25000   0.29103   0.29872   0.32346
     Eigenvalues ---    0.32364   0.32373   0.32401   0.32499   0.32532
     Eigenvalues ---    0.32558   0.34364   0.34370   0.34436   0.34441
     Eigenvalues ---    0.34686   0.35650   0.35655   0.35761   0.36573
     Eigenvalues ---    0.38019   0.39816   0.40701   0.41183   0.42416
     Eigenvalues ---    0.44189   0.44681   0.45301   0.46303   0.51408
     Eigenvalues ---    0.52305   0.94993
 RFO step:  Lambda=-7.49558796D-02 EMin= 2.30000000D-03
 Linear search not attempted -- first point.
 Maximum step size (   0.300) exceeded in Quadratic search.
    -- Step size scaled by   0.641
 Iteration  1 RMS(Cart)=  0.05149928 RMS(Int)=  0.00081216
 Iteration  2 RMS(Cart)=  0.00120111 RMS(Int)=  0.00030636
 Iteration  3 RMS(Cart)=  0.00000099 RMS(Int)=  0.00030636
 Variable       Old X    -DE/DX   Delta X   Delta X   Delta X     New X
                                 (Linear)    (Quad)   (Total)
    R1        2.88219   0.00187   0.00000   0.00322   0.00322   2.88541
    R2        2.09835  -0.01044   0.00000  -0.01671  -0.01671   2.08164
    R3        2.09941  -0.01004   0.00000  -0.01611  -0.01611   2.08330
    R4        2.09881  -0.00985   0.00000  -0.01578  -0.01578   2.08303
    R5        2.89790  -0.00703   0.00000  -0.01232  -0.01232   2.88558
    R6        2.10167  -0.00964   0.00000  -0.01550  -0.01550   2.08616
    R7        2.10116  -0.00951   0.00000  -0.01529  -0.01529   2.08587
    R8        2.74338  -0.00001   0.00000  -0.00001  -0.00001   2.74337
    R9        2.10215  -0.00944   0.00000  -0.01520  -0.01520   2.08695
   R10        2.10183  -0.00928   0.00000  -0.01493  -0.01493   2.08690
   R11        2.57609   0.00217   0.00000   0.00233   0.00233   2.57842
   R12        1.95097  -0.01711   0.00000  -0.02198  -0.02198   1.92899
   R13        2.30713   0.07052   0.00000   0.04413   0.04413   2.35126
   R14        2.58471  -0.01466   0.00000  -0.01596  -0.01596   2.56875
   R15        2.71804  -0.05704   0.00000  -0.07731  -0.07731   2.64073
   R16        2.67486   0.00268   0.00000   0.00369   0.00367   2.67853
   R17        2.65662   0.00538   0.00000   0.00710   0.00708   2.66370
   R18        2.64785  -0.01087   0.00000  -0.01337  -0.01337   2.63448
   R19        2.03195   0.00318   0.00000   0.00462   0.00462   2.03657
   R20        2.63332  -0.00941   0.00000  -0.01095  -0.01095   2.62237
   R21        2.04624   0.00162   0.00000   0.00241   0.00241   2.04865
   R22        2.64777  -0.00576   0.00000  -0.00727  -0.00724   2.64053
   R23        2.04457   0.00272   0.00000   0.00404   0.00404   2.04861
   R24        2.65634  -0.01145   0.00000  -0.01455  -0.01453   2.64180
   R25        3.44113  -0.00855   0.00000  -0.01711  -0.01711   3.42402
   R26        2.04632   0.00227   0.00000   0.00338   0.00338   2.04970
   R27        3.23711  -0.04581   0.00000  -0.07017  -0.07017   3.16693
   R28        3.23188  -0.06131   0.00000  -0.09321  -0.09321   3.13867
   R29        3.23601  -0.04578   0.00000  -0.07001  -0.07001   3.16600
   R30        3.23592  -0.04549   0.00000  -0.06957  -0.06957   3.16636
   R31        3.23719  -0.04573   0.00000  -0.07006  -0.07006   3.16713
    A1        1.91223   0.00337   0.00000   0.00963   0.00959   1.92183
    A2        1.92484   0.00207   0.00000   0.00546   0.00544   1.93028
    A3        1.92516   0.00222   0.00000   0.00580   0.00578   1.93095
    A4        1.89639  -0.00247   0.00000  -0.00628  -0.00631   1.89008
    A5        1.89814  -0.00262   0.00000  -0.00678  -0.00682   1.89132
    A6        1.90662  -0.00272   0.00000  -0.00823  -0.00824   1.89838
    A7        1.94201  -0.00061   0.00000  -0.00025  -0.00025   1.94176
    A8        1.89913   0.00167   0.00000   0.00657   0.00657   1.90570
    A9        1.90315   0.00141   0.00000   0.00535   0.00535   1.90850
   A10        1.90859  -0.00051   0.00000  -0.00238  -0.00239   1.90621
   A11        1.91302  -0.00054   0.00000  -0.00280  -0.00281   1.91022
   A12        1.89736  -0.00141   0.00000  -0.00659  -0.00662   1.89073
   A13        1.93402  -0.00298   0.00000  -0.00517  -0.00517   1.92885
   A14        1.91131   0.00049   0.00000   0.00003   0.00003   1.91134
   A15        1.90169   0.00112   0.00000   0.00268   0.00268   1.90437
   A16        1.90919   0.00186   0.00000   0.00549   0.00548   1.91467
   A17        1.90366   0.00191   0.00000   0.00647   0.00647   1.91012
   A18        1.90370  -0.00241   0.00000  -0.00960  -0.00961   1.89409
   A19        2.13187  -0.00034   0.00000  -0.00074  -0.00074   2.13113
   A20        2.07483   0.00064   0.00000   0.00164   0.00164   2.07647
   A21        2.07643  -0.00030   0.00000  -0.00090  -0.00090   2.07553
   A22        2.08471  -0.00409   0.00000  -0.00807  -0.00807   2.07664
   A23        2.08040  -0.03364   0.00000  -0.06638  -0.06638   2.01402
   A24        2.11805   0.03774   0.00000   0.07447   0.07447   2.19252
   A25        2.23805  -0.03938   0.00000  -0.07772  -0.07772   2.16033
   A26        2.17853   0.00899   0.00000   0.01693   0.01695   2.19548
   A27        2.04747  -0.00622   0.00000  -0.01310  -0.01307   2.03439
   A28        2.05719  -0.00277   0.00000  -0.00384  -0.00388   2.05331
   A29        2.10419   0.00176   0.00000   0.00437   0.00434   2.10853
   A30        2.15116  -0.00618   0.00000  -0.01665  -0.01664   2.13452
   A31        2.02782   0.00442   0.00000   0.01229   0.01230   2.04012
   A32        2.11907   0.00093   0.00000   0.00359   0.00358   2.12264
   A33        2.09840  -0.00215   0.00000  -0.00639  -0.00638   2.09202
   A34        2.06571   0.00122   0.00000   0.00280   0.00281   2.06852
   A35        2.10713  -0.00735   0.00000  -0.01582  -0.01579   2.09134
   A36        2.07057   0.00358   0.00000   0.00765   0.00764   2.07821
   A37        2.10548   0.00377   0.00000   0.00817   0.00816   2.11363
   A38        2.06912   0.01307   0.00000   0.02482   0.02486   2.09399
   A39        2.09787  -0.00456   0.00000  -0.00851  -0.00853   2.08934
   A40        2.11614  -0.00851   0.00000  -0.01630  -0.01632   2.09982
   A41        2.10961  -0.00563   0.00000  -0.01311  -0.01309   2.09651
   A42        2.07317   0.00249   0.00000   0.00565   0.00564   2.07881
   A43        2.10039   0.00315   0.00000   0.00746   0.00746   2.10785
   A44        1.58277   0.01361   0.00000   0.04292   0.04287   1.62564
   A45        1.58337   0.01328   0.00000   0.04219   0.04214   1.62552
   A46        1.57855   0.01431   0.00000   0.04471   0.04466   1.62321
   A47        1.57895   0.01457   0.00000   0.04525   0.04519   1.62414
   A48        1.56128  -0.01397   0.00000  -0.04404  -0.04398   1.51729
   A49        1.55663   0.00284   0.00000   0.00738   0.00554   1.56217
   A50        1.58501  -0.00340   0.00000  -0.00906  -0.01099   1.57402
   A51        1.56065  -0.01374   0.00000  -0.04361  -0.04355   1.51710
   A52        1.56059  -0.01396   0.00000  -0.04360  -0.04355   1.51704
   A53        1.56021  -0.01412   0.00000  -0.04383  -0.04378   1.51643
   A54        1.58497  -0.00348   0.00000  -0.00941  -0.01129   1.57368
   A55        1.55615   0.00291   0.00000   0.00755   0.00557   1.56173
   A56        3.14404  -0.00036   0.00000  -0.00111  -0.00111   3.14293
   A57        3.16132   0.02792   0.00000   0.08764   0.08753   3.24885
   A58        3.16232   0.02785   0.00000   0.08744   0.08734   3.24966
   A59        3.14399  -0.00044   0.00000  -0.00138  -0.00138   3.14261
   A60        3.14133   0.00003   0.00000   0.00010   0.00014   3.14147
   A61        3.14189   0.00006   0.00000   0.00025   0.00022   3.14212
    D1        3.13563   0.00011   0.00000   0.00067   0.00067   3.13629
    D2        1.03161   0.00004   0.00000  -0.00052  -0.00052   1.03110
    D3       -1.03538  -0.00003   0.00000   0.00055   0.00055  -1.03484
    D4        1.04900  -0.00024   0.00000  -0.00101  -0.00101   1.04799
    D5       -1.05501  -0.00030   0.00000  -0.00219  -0.00220  -1.05721
    D6       -3.12201  -0.00037   0.00000  -0.00112  -0.00113  -3.12314
    D7       -1.05857   0.00037   0.00000   0.00195   0.00196  -1.05661
    D8        3.12060   0.00030   0.00000   0.00076   0.00077   3.12138
    D9        1.05360   0.00024   0.00000   0.00184   0.00184   1.05544
   D10       -3.12912  -0.00031   0.00000  -0.00181  -0.00181  -3.13093
   D11        1.04640  -0.00104   0.00000  -0.00536  -0.00536   1.04104
   D12       -1.03453   0.00092   0.00000   0.00469   0.00469  -1.02984
   D13       -1.03069   0.00104   0.00000   0.00466   0.00466  -1.02603
   D14       -3.13836   0.00031   0.00000   0.00112   0.00111  -3.13725
   D15        1.06390   0.00228   0.00000   0.01116   0.01116   1.07506
   D16        1.04769  -0.00132   0.00000  -0.00649  -0.00649   1.04120
   D17       -1.05998  -0.00205   0.00000  -0.01004  -0.01004  -1.07001
   D18       -3.14091  -0.00008   0.00000   0.00001   0.00001  -3.14089
   D19        3.11452   0.00032   0.00000   0.00161   0.00161   3.11613
   D20       -0.01513   0.00029   0.00000   0.00137   0.00137  -0.01376
   D21       -1.05975   0.00024   0.00000   0.00193   0.00192  -1.05782
   D22        2.09378   0.00021   0.00000   0.00169   0.00168   2.09547
   D23        1.02111  -0.00044   0.00000  -0.00262  -0.00262   1.01849
   D24       -2.10855  -0.00047   0.00000  -0.00286  -0.00286  -2.11140
   D25        0.01022   0.00022   0.00000   0.00134   0.00130   0.01152
   D26       -3.12426  -0.00045   0.00000  -0.00287  -0.00283  -3.12710
   D27        3.13986   0.00026   0.00000   0.00159   0.00156   3.14142
   D28        0.00538  -0.00042   0.00000  -0.00261  -0.00258   0.00280
   D29        3.13233   0.00046   0.00000   0.00336   0.00342   3.13575
   D30       -0.00201  -0.00004   0.00000  -0.00057  -0.00063  -0.00264
   D31        0.01183  -0.00001   0.00000  -0.00018  -0.00018   0.01165
   D32       -3.13165  -0.00002   0.00000  -0.00004  -0.00004  -3.13169
   D33        3.13128   0.00013   0.00000   0.00093   0.00093   3.13221
   D34       -0.00418  -0.00001   0.00000  -0.00004  -0.00004  -0.00422
   D35       -0.00841   0.00014   0.00000   0.00080   0.00079  -0.00762
   D36        3.13932  -0.00001   0.00000  -0.00018  -0.00018   3.13914
   D37       -3.13223  -0.00014   0.00000  -0.00087  -0.00086  -3.13309
   D38        0.00493  -0.00004   0.00000  -0.00014  -0.00013   0.00479
   D39        0.00761  -0.00013   0.00000  -0.00071  -0.00070   0.00690
   D40       -3.13843  -0.00003   0.00000   0.00001   0.00002  -3.13840
   D41        0.00045   0.00010   0.00000   0.00042   0.00041   0.00086
   D42       -3.13521  -0.00012   0.00000  -0.00099  -0.00100  -3.13621
   D43        3.13633   0.00020   0.00000   0.00123   0.00123   3.13756
   D44        0.00066  -0.00002   0.00000  -0.00018  -0.00018   0.00048
   D45        0.00125  -0.00014   0.00000  -0.00064  -0.00062   0.00063
   D46        3.13663   0.00011   0.00000   0.00094   0.00095   3.13758
   D47       -3.13598  -0.00023   0.00000  -0.00133  -0.00132  -3.13730
   D48       -0.00060   0.00002   0.00000   0.00025   0.00025  -0.00035
   D49       -0.00929   0.00026   0.00000   0.00164   0.00164  -0.00765
   D50        3.12206   0.00033   0.00000   0.00246   0.00246   3.12453
   D51        3.13864   0.00001   0.00000   0.00004   0.00004   3.13868
   D52       -0.01319   0.00008   0.00000   0.00085   0.00086  -0.01232
   D53        0.00843  -0.00024   0.00000  -0.00153  -0.00153   0.00691
   D54       -3.13918  -0.00002   0.00000  -0.00010  -0.00010  -3.13928
   D55       -3.12281  -0.00033   0.00000  -0.00240  -0.00241  -3.12522
   D56        0.01276  -0.00011   0.00000  -0.00097  -0.00098   0.01178
   D57        0.80381  -0.00168   0.00000  -0.00479  -0.00476   0.79905
   D58        2.36059   0.00149   0.00000   0.00362   0.00361   2.36420
   D59       -2.33752  -0.00171   0.00000  -0.00489  -0.00490  -2.34242
   D60       -0.78130   0.00143   0.00000   0.00337   0.00339  -0.77791
   D61       -2.34830  -0.00148   0.00000  -0.00370  -0.00369  -2.35198
   D62       -0.79151   0.00169   0.00000   0.00470   0.00468  -0.78683
   D63        0.79356  -0.00151   0.00000  -0.00380  -0.00383   0.78973
   D64        2.34978   0.00163   0.00000   0.00445   0.00446   2.35424
         Item               Value     Threshold  Converged?
 Maximum Force            0.070524     0.000450     NO 
 RMS     Force            0.013879     0.000300     NO 
 Maximum Displacement     0.252728     0.001800     NO 
 RMS     Displacement     0.052138     0.001200     NO 
 Predicted change in Energy=-3.604155D-02
 GradGradGradGradGradGradGradGradGradGradGradGradGradGradGradGradGradGrad

                          Input orientation:                          
 ---------------------------------------------------------------------
 Center     Atomic      Atomic             Coordinates (Angstroms)
 Number     Number       Type             X           Y           Z
 ---------------------------------------------------------------------
      1          6           0       -2.085262    1.956798   -0.019743
      2          6           0       -0.747248    1.231987    0.105809
      3          6           0        0.423009    2.205832   -0.011679
      4          7           0        1.686228    1.498507    0.095472
      5          6           0        2.886774    2.138729   -0.007000
      6          8           0        2.900107    3.369947   -0.186002
      7          7           0        3.983117    1.341809    0.096475
      8          6           0        5.296258    1.811933    0.010362
      9          6           0        5.682458    3.162351   -0.180144
     10          6           0        6.319299    0.849251    0.126592
     11          6           0        7.660151    1.201673    0.066409
     12          6           0        8.019578    2.540026   -0.112723
     13          6           0        7.029033    3.518287   -0.239919
     14          1           0       -2.915110    1.237025    0.062163
     15          1           0       -2.161757    2.463502   -0.995838
     16          1           0       -2.196742    2.707776    0.779413
     17          1           0       -0.669634    0.472725   -0.691814
     18          1           0       -0.700359    0.717060    1.081007
     19          1           0        0.352570    2.965208    0.787076
     20          1           0        0.370342    2.718226   -0.988533
     21          1           0        1.676425    0.488372    0.242168
     22          1           0        4.962950    3.958409   -0.280418
     23          1           0        6.064457   -0.194639    0.270168
     24          1           0        8.413093    0.427913    0.164379
     25         16           0        9.771311    3.000253   -0.164239
     26          1           0        7.293473    4.560632   -0.381561
     27          9           0       10.165663    1.744781   -1.201934
[...]
 47,0.00000010,-0.00000067,-0.00000029,0.00000100,-0.00000008,0.,-0.000
 00145,0.00000070,0.00000099,-0.00000019,0.00000177,-0.00001393,0.00000
 832,-0.00000706,-0.00001378,0.00000100,-0.00001580,0.00001676,0.000034
 94,-0.00004585,0.00142162,0.00045555,-0.00057368,0.00014719,-0.0000810
 4,-0.00008005,0.00048184,0.00102497,0.00014768,-0.00122213,0.00245508,
 0.00046054,0.07935368,-0.00000243,-0.00000470,0.00000292,-0.00000336,0
 .00000859,-0.00001018,0.00002608,-0.00002539,0.00001213,-0.00016409,0.
 00002954,0.00004951,0.00040546,-0.00032922,0.00005330,-0.00001458,0.00
 019733,-0.00006857,-0.00053188,-0.00027255,0.00016422,-0.00015504,0.00
 182163,-0.00116605,-0.00049450,-0.00216320,-0.00129841,-0.00011603,0.0
 0074273,0.00032280,0.00382134,-0.00053131,-0.00141351,-0.00641625,-0.0
 1461573,-0.00232614,-0.07102186,-0.32705877,-0.04305393,-0.00000285,0.
 00000042,-0.00000067,-0.00000009,0.00000009,-0.00000049,-0.00000018,0.
 00000083,-0.00000002,0.00000003,-0.00000105,0.00000034,0.00000003,-0.0
 0000009,0.00000140,-0.00000616,0.00000298,-0.00000233,-0.00001108,0.00
 000195,-0.00001047,0.00001145,0.00001124,-0.00001474,0.00022191,0.0006
 9425,0.00096460,-0.00005314,-0.00006963,0.00010362,-0.00042441,-0.0005
 7562,-0.00016139,0.00004580,-0.00306646,-0.00019501,0.07737079,0.34287
 714,-0.00000093,-0.00000192,0.00000149,0.00000103,0.00000382,-0.000004
 00,0.00002123,-0.00002161,-0.00000443,-0.00010521,-0.00003618,0.000089
 90,0.00024665,-0.00029440,0.00009846,-0.00024714,0.00003704,-0.0001321
 1,-0.00066612,0.00027226,-0.00089069,0.00182568,-0.00059181,0.00812649
 ,0.00009045,0.00137080,0.00610096,0.00006471,0.00042820,-0.00105015,0.
 00149386,-0.00142490,0.00455223,-0.00210900,-0.00465510,0.00247262,-0.
 00758256,-0.04322447,-0.04500322,-0.00000147,0.00000031,-0.00000043,-0
 .00000032,-0.00000004,-0.00000042,-0.00000026,0.00000037,0.00000008,-0
 .00000033,-0.00000063,0.00000035,0.00000026,-0.00000019,0.00000080,-0.
 00000102,0.00000345,-0.00000137,-0.00001285,-0.00000016,-0.00000332,-0
 .00002325,0.00000367,-0.00002669,-0.00043149,0.00092721,-0.00482984,-0
 .00008052,0.00007405,-0.00060267,-0.00004420,-0.00032817,0.00071472,0.
 00023513,-0.00051805,-0.00156404,0.00822311,0.04721639,0.03297065,-0.0
 0002217,-0.00003251,0.00002593,-0.00001938,0.00006768,-0.00007395,0.00
 023833,-0.00026471,0.00000043,-0.00140930,0.00009866,0.00051868,0.0033
 0279,-0.00281979,0.00014942,-0.00078450,0.00153121,-0.00063062,-0.0058
 9446,-0.00007911,0.00093930,0.00462772,0.00283919,-0.00025758,-0.00409
 164,-0.00143647,-0.00087445,-0.00172541,0.00101295,-0.00014247,-0.0017
 0175,0.00157972,0.00216986,-0.01167984,0.01644175,0.02256884,0.0016970
 2,-0.00678759,0.00279836,-0.00002221,0.00000403,-0.00000572,-0.0000019
 6,0.00000078,-0.00000225,-0.00000061,0.00000399,-0.00000085,-0.0000012
 3,-0.00000873,0.00000336,0.00000288,-0.00000160,0.00000959,-0.00003624
 ,0.00002058,-0.00001626,-0.00011859,0.00002074,-0.00008198,0.00003956,
 0.00005290,-0.00010997,-0.00057489,-0.00016044,-0.00044169,-0.00024870
 ,-0.00021325,-0.00007028,-0.00081981,0.00006251,0.00048080,-0.06785144
 ,0.01690136,0.02958743,0.00036400,0.00003357,0.00024945,0.09017219,0.0
 0000854,0.00001216,-0.00001068,0.00000689,-0.00002581,0.00002956,-0.00
 009526,0.00010676,0.00000685,0.00057033,-0.00003804,-0.00021125,-0.001
 39989,0.00116988,-0.00009711,0.00029746,-0.00063518,0.00027870,0.00240
 615,0.00002224,-0.00048143,-0.00222521,-0.00040516,0.00025519,0.000765
 45,0.00017086,0.00024074,0.00140496,0.00055223,0.00090620,-0.00095426,
 -0.00318066,0.00001042,-0.00354547,-0.00125831,-0.00495653,0.00050759,
 0.00248002,-0.00090550,0.00000887,-0.00000173,0.00000223,0.00000089,-0
 .00000036,0.00000108,0.00000035,-0.00000122,0.00000030,0.00000018,0.00
 000377,-0.00000143,-0.00000089,0.00000079,-0.00000387,0.00001479,-0.00
 000756,0.00000650,0.00004946,-0.00000887,0.00003349,-0.00001401,-0.000
 02190,0.00004286,0.00025997,0.00010947,0.00016628,0.00024994,0.0000173
 3,0.00011000,-0.00094307,0.00111861,0.00004040,0.01585768,-0.08865296,
 -0.05197038,-0.00044359,0.00021270,-0.00004792,-0.00914119,0.13850541,
 0.00001701,0.00002465,-0.00002091,0.00001614,-0.00005300,0.00005824,-0
 .00018782,0.00020862,-0.00000631,0.00110844,-0.00007652,-0.00039991,-0
 .00259431,0.00216899,-0.00015429,0.00065594,-0.00117622,0.00055600,0.0
 0456554,0.00000155,-0.00074971,-0.00378626,-0.00128374,0.00031978,0.00
 228579,-0.00056722,0.00011643,0.00180233,-0.00027288,0.00048047,0.0013
 7442,-0.00161377,-0.00053488,-0.00121155,-0.01779517,-0.00986583,0.002
 28209,0.00701027,-0.00197126,0.00001727,-0.00000344,0.00000459,0.00000
 194,-0.00000048,0.00000236,0.00000051,-0.00000286,0.00000042,0.0000010
 1,0.00000719,-0.00000305,-0.00000262,0.00000139,-0.00000643,0.00002866
 ,-0.00001562,0.00001275,0.00009309,-0.00001610,0.00006645,-0.00002956,
 -0.00004424,0.00008181,0.00067686,0.00029592,0.00036038,0.00036186,0.0
 0015164,0.00006812,0.00035775,0.00034523,-0.00063992,0.03089765,-0.050
 56667,-0.14036818,-0.00052463,0.00007435,-0.00013674,-0.02086442,0.090
 91319,0.21398897,-0.00000825,-0.00001228,0.00000993,-0.00000770,0.0000
 2594,-0.00002942,0.00009447,-0.00010368,0.00000383,-0.00056006,0.00004
 543,0.00021729,0.00128567,-0.00111261,0.00006313,-0.00025891,0.0006075
 4,-0.00023716,-0.00230551,0.00002136,0.00031936,0.00177992,0.00046232,
 -0.00025232,-0.00082752,-0.00076543,0.00003529,-0.00117011,0.00015463,
 0.00001606,0.00020518,0.00115324,0.00017868,-0.00301780,-0.00169389,0.
 00025298,0.00093380,-0.00064256,-0.00014470,-0.00000905,0.00000147,-0.
 00000215,-0.00000066,0.00000043,-0.00000088,-0.00000021,0.00000163,-0.
 00000035,0.,-0.00000325,0.00000111,0.00000095,-0.00000069,0.00000392,-
 0.00001498,0.00000747,-0.00000661,-0.00004434,0.00000826,-0.00003346,0
 .00001505,0.00002299,-0.00004339,-0.00013829,-0.00001788,0.00001278,-0
 .00017368,-0.00009184,0.00000811,0.00018844,0.00030170,0.00002490,-0.1
 5604530,-0.02722141,0.00618404,0.00034788,-0.00026348,-0.00010702,-0.0
 1972532,-0.02042180,-0.01614869,0.27122424,-0.00000215,-0.00000354,0.0
 0000269,-0.00000214,0.00000663,-0.00000843,0.00002586,-0.00002749,0.00
 000223,-0.00015280,0.00001354,0.00005673,0.00034570,-0.00031597,0.0000
 1674,-0.00007677,0.00016956,-0.00006320,-0.00062164,-0.00000054,0.0000
 7411,0.00044091,0.00035904,-0.00002160,-0.00055087,-0.00009890,0.00008
 157,-0.00009227,0.00029780,0.00003876,0.00060259,-0.00000425,-0.000117
 09,-0.00171704,0.00275767,0.00027050,-0.00004956,-0.00075064,-0.000155
 41,-0.00000236,0.00000043,-0.00000067,-0.00000019,-0.00000001,-0.00000
 021,-0.00000025,0.00000070,-0.00000002,-0.00000014,-0.00000056,0.00000
 039,0.00000012,-0.00000024,0.00000111,-0.00000411,0.00000262,-0.000001
 54,-0.00001215,0.00000203,-0.00000912,0.00000399,0.00000584,-0.0000113
 6,-0.00006646,-0.00002211,0.00001094,-0.00001462,-0.00002481,0.0000059
 8,0.00007478,0.00033488,0.00003755,-0.02720662,-0.06353560,0.00158053,
 -0.00003840,0.00013281,0.00002377,-0.03163368,-0.01714428,-0.02263847,
 0.04710489,0.11214424,0.00000049,0.00000116,-0.00000028,0.00000102,-0.
 00000210,0.00000128,-0.00000694,0.00000583,-0.00000530,0.00003255,-0.0
 0000344,-0.00000926,-0.00007354,0.00007426,-0.00000422,0.00000305,-0.0
 0004288,0.00001695,0.00014509,0.00000493,-0.00001053,-0.00011431,0.000
 02113,0.00000970,-0.00001510,0.00006878,-0.00006239,0.00011643,0.00003
 633,-0.00006128,0.00010325,-0.00016206,0.00022037,0.00030101,0.0002809
 0,0.00221236,-0.00008066,-0.00010175,0.00026924,0.00000042,-0.00000016
 ,0.00000014,0.00000023,0.00000008,0.00000037,0.00000004,-0.00000004,-0
 .00000012,0.00000012,0.00000031,-0.00000024,-0.00000041,-0.00000001,0.
 00000045,0.00000101,-0.00000026,0.00000006,0.00000281,-0.00000022,0.00
 000323,-0.00000146,-0.00000214,0.00000027,0.00000226,0.00000287,-0.000
 03828,0.00001034,0.00001198,-0.00004002,-0.00000082,0.00001941,-0.0000
 2264,0.00621300,0.00157058,-0.05570090,-0.00004984,0.00004689,0.000002
 30,-0.03172013,-0.02755295,-0.01544391,-0.01055529,-0.00282898,0.09954
 475,-0.00001458,-0.00002078,0.00001665,-0.00001194,0.00004398,-0.00004
 804,0.00015561,-0.00017147,-0.00000499,-0.00091975,0.00007594,0.000362
 15,0.00211313,-0.00191912,0.00018997,-0.00034226,0.00104365,-0.0003974
 4,-0.00379820,0.00017244,0.00051426,0.00323719,-0.00039746,-0.00064455
 ,0.00001834,-0.00145532,0.00019488,-0.00313502,-0.00019327,-0.00076634
 ,-0.00026566,0.00346921,0.00327056,-0.00292845,-0.02116363,0.00991826,
 -0.00201924,-0.00125182,0.00195501,-0.00001423,0.00000247,-0.00000356,
 -0.00000126,0.00000056,-0.00000132,-0.00000033,0.00000260,-0.00000057,
 -0.00000020,-0.00000548,0.00000194,0.00000151,-0.00000084,0.00000610,-
 0.00002468,0.00001158,-0.00000998,-0.00007465,0.00001323,-0.00005503,0
 .00002346,0.00003997,-0.00007034,-0.00009700,0.00007394,0.00004544,-0.
 00039523,-0.00007520,-0.00027725,0.00014704,-0.00014717,0.00018160,-0.
 05950045,0.00684762,-0.00425800,-0.00055960,-0.00122863,-0.00009276,0.
 00328585,0.01499969,0.00008551,-0.04681958,0.03217775,-0.02844675,0.09
 937294,-0.00002305,-0.00003466,0.00002757,-0.00002088,0.00007124,-0.00
 008101,0.00025746,-0.00028864,-0.00000789,-0.00153119,0.00013153,0.000
 56293,0.00359997,-0.00323083,0.00030643,-0.00067808,0.00177497,-0.0006
 9630,-0.00647043,0.00030143,0.00108197,0.00550565,0.00100305,-0.000656
 60,-0.00240033,-0.00105940,-0.00054080,-0.00301164,-0.00067022,-0.0013
 5720,-0.00395892,0.00479012,0.00503786,0.00733048,-0.01939574,0.011355
 47,0.00155318,-0.00401344,-0.00018187,-0.00002334,0.00000462,-0.000006
 42,-0.00000221,0.00000040,-0.00000236,-0.00000141,0.00000484,-0.000000
 56,-0.00000040,-0.00000789,0.00000377,0.00000268,-0.00000212,0.0000103
 7,-0.00004047,0.00002252,-0.00001587,-0.00012982,0.00002182,-0.0000906
 4,0.00004081,0.00006001,-0.00011484,-0.00039270,-0.00006889,-0.0001261
 3,-0.00091313,-0.00008717,-0.00043338,0.00062859,0.00042860,0.00039223
 ,0.00660570,-0.14276991,0.05838083,-0.00018594,0.00083960,0.00058950,0
 .00825095,-0.03826644,0.00161849,0.01574938,-0.00399641,0.01056293,-0.
 03469305,0.20341862,0.00001088,0.00001601,-0.00001294,0.00001112,-0.00
 003443,0.00003758,-0.00012220,0.00013660,-0.00000346,0.00071931,-0.000
 06238,-0.00026234,-0.00165177,0.00146427,-0.00016801,0.00034203,-0.000
 80617,0.00034688,0.00293594,-0.00012064,-0.00040294,-0.00230757,-0.000
 54642,0.00022409,0.00080842,0.00082657,0.00007221,0.00081240,0.0012088
 1,0.00063493,0.00418744,-0.00249594,-0.00260801,-0.00855845,0.01304381
 ,0.00010388,0.00127427,0.00101127,-0.00024890,0.00001093,-0.00000226,0
 .00000311,0.00000122,-0.00000006,0.00000146,0.00000042,-0.00000221,0.0
 0000012,-0.00000002,0.00000377,-0.00000186,-0.00000137,0.00000101,-0.0
 0000401,0.00001947,-0.00001069,0.00000785,0.00005945,-0.00000983,0.000
 04361,-0.00001899,-0.00003017,0.00005352,0.00020029,0.00003169,0.00000
 002,0.00061464,0.00004339,0.00020040,-0.00029294,-0.00012276,-0.000148
 97,-0.00158855,0.05781779,-0.09503279,0.00028128,0.00057448,-0.0002923
 1,0.00415334,-0.01901173,0.00457415,-0.01755729,0.01257511,-0.00144753
 ,0.02469881,-0.08998254,0.14006818,-0.00001689,-0.00002332,0.00002044,
 -0.00001384,0.00005012,-0.00005728,0.00017517,-0.00019465,-0.00000113,
 -0.00105571,0.00010420,0.00040235,0.00247027,-0.00219076,0.00013393,-0
 .00043388,0.00123408,-0.00045218,-0.00453080,0.00003813,0.00072707,0.0
 0385153,-0.00022894,-0.00096425,-0.00033137,-0.00157171,-0.00030933,-0
 .00330662,-0.00071665,0.00100609,-0.00169021,0.00517800,-0.00218051,-0
 .00400892,-0.01967157,-0.01675524,-0.00237471,-0.00094042,-0.00172408,
 -0.00001662,0.00000300,-0.00000427,-0.00000143,0.00000054,-0.00000154,
 -0.00000063,0.00000304,-0.00000053,-0.00000037,-0.00000628,0.00000236,
 0.00000105,-0.00000153,0.00000774,-0.00002856,0.00001402,-0.00001178,-
 0.00008431,0.00001524,-0.00006478,0.00003348,0.00004707,-0.00007893,-0
 .00014570,0.00006514,0.00004908,-0.00046483,-0.00020220,0.00042357,0.0
 0017535,-0.00004010,-0.00024570,-0.06066817,-0.00612598,-0.00787588,-0
 .00101432,-0.00117701,-0.00047135,0.00657656,0.00036696,-0.00078760,-0
 .03380769,0.01677612,0.04291418,0.00659363,-0.00002643,-0.00578171,0.0
 9085711,-0.00001917,-0.00002653,0.00002320,-0.00001593,0.00005712,-0.0
 0006565,0.00020835,-0.00023293,-0.00001096,-0.00122658,0.00011983,0.00
 048896,0.00285565,-0.00261280,0.00011538,-0.00045167,0.00143917,-0.000
 48904,-0.00536354,0.00012452,0.00070501,0.00460094,0.00079870,-0.00097
 045,-0.00174531,-0.00099217,0.00101214,-0.00272152,-0.00057004,0.00100
 782,-0.00286127,0.00499297,-0.00216122,0.00080089,-0.01048953,-0.01588
 717,0.00166226,-0.00333190,-0.00121354,-0.00001870,0.00000350,-0.00000
 506,-0.00000184,0.00000055,-0.00000136,-0.00000076,0.00000391,-0.00000
 074,-0.00000059,-0.00000649,0.00000266,0.00000182,-0.00000155,0.000008
 96,-0.00003294,0.00001644,-0.00001328,-0.00009921,0.00001769,-0.000074
 87,0.00003621,0.00005125,-0.00009245,-0.00030348,-0.00009650,0.0001918
 9,-0.00058480,-0.00020549,0.00048263,0.00041690,0.00044800,-0.00026105
 ,-0.00545980,-0.10228398,-0.06132239,0.00005689,0.00099839,-0.00015665
 ,0.00248826,0.00027514,-0.00638583,0.00555465,0.00422621,-0.00893926,0
 .00213608,0.00481820,0.01895175,-0.00688395,0.14079979,-0.00001503,-0.
 00002112,0.00001720,-0.00001337,0.00004485,-0.00005102,0.00015892,-0.0
 0017837,0.00000189,-0.00095963,0.00008719,0.00038194,0.00219617,-0.001
 94485,0.00008267,-0.00040730,0.00107142,-0.00038937,-0.00405295,0.0000
 6407,0.00052386,0.00326915,0.00095062,-0.00066461,-0.00134056,-0.00093
 427,0.00063393,-0.00116093,-0.00147646,0.00030197,-0.00542152,0.004005
 94,-0.00124318,0.00948075,-0.01242798,-0.00804962,-0.00024307,-0.00190
 041,-0.00024020,-0.00001493,0.00000268,-0.00000399,-0.00000092,0.00000
 063,-0.00000056,-0.00000065,0.00000293,-0.00000083,-0.00000004,-0.0000
 0480,0.00000177,0.00000056,-0.00000124,0.00000764,-0.00002650,0.000012
 93,-0.00001137,-0.00007477,0.00001390,-0.00005655,0.00002684,0.0000403
 4,-0.00007680,-0.00029209,-0.00008931,0.00011740,-0.00070595,-0.000166
 04,0.00042266,0.00038996,0.00033078,-0.00018999,-0.01017256,-0.0604906
 0,-0.13633145,-0.00038372,0.00011234,-0.00042751,0.00250296,-0.0054113
 5,-0.00499303,0.02745728,-0.01401436,-0.02279810,-0.00558971,-0.001590
 01,-0.04543228,-0.01367957,0.09315845,0.21393839,-0.00002548,-0.000034
 90,0.00003022,-0.00002165,0.00007408,-0.00008495,0.00027062,-0.0002984
 5,0.00000050,-0.00161326,0.00013621,0.00065416,0.00371071,-0.00330287,
 0.00018499,-0.00064069,0.00174821,-0.00063062,-0.00664243,-0.00012616,
 0.00074420,0.00498213,0.00300070,-0.00068940,-0.00388044,-0.00155113,0
 .00182534,-0.00200728,0.00101962,0.00025663,-0.00253309,0.00213741,-0.
 00126012,-0.01495450,0.02603331,-0.01341391,-0.00010922,-0.00645530,-0
 .00543726,-0.00002494,0.00000451,-0.00000637,-0.00000226,0.00000091,-0
 .00000229,-0.00000076,0.00000435,-0.00000096,-0.00000054,-0.00000941,0
 .00000350,0.00000306,-0.00000186,0.00001115,-0.00004261,0.00002099,-0.
 00001872,-0.00012725,0.00002355,-0.00009891,0.00004321,0.00006874,-0.0
 0012669,-0.00066112,-0.00038067,0.00058079,-0.00029194,-0.00026882,0.0
 0010876,-0.00118784,0.00010468,-0.00034897,-0.08250366,0.03833026,-0.0
 2907737,0.00039830,0.00015061,-0.00047374,0.00642254,0.00140851,-0.000
 49236,-0.01114064,-0.03530848,0.02121797,0.00597361,0.00497857,-0.0032
 6078,0.00326143,0.00697217,-0.00092683,0.10334601,0.00001284,0.0000184
 1,-0.00001469,0.00001025,-0.00004038,0.00004347,-0.00014678,0.00015211
 ,-0.00000002,0.00084166,-0.00007325,-0.00036183,-0.00197408,0.00173348
 ,-0.00001890,0.00031834,-0.00091625,0.00033220,0.00356293,0.00010305,-
 0.00039419,-0.00307402,-0.00079041,0.00063639,0.00106757,0.00009009,-0
 .00090684,0.00171547,0.00083637,-0.00075725,-0.00071602,-0.00356064,-0
 .00091310,-0.00289821,-0.00851368,0.00550091,0.00181789,0.00367020,0.0
 0235864,0.00001304,-0.00000230,0.00000327,0.00000111,-0.00000072,0.000
 00100,0.,-0.00000190,0.00000064,0.00000059,0.00000569,-0.00000160,-0.0
 0000125,0.00000059,-0.00000572,0.00002344,-0.00000927,0.00000987,0.000
 06655,-0.00001261,0.00005197,-0.00002328,-0.00003719,0.00006581,0.0004
 2646,0.00027796,-0.00030500,0.00031162,0.00011007,-0.00018866,-0.00104
 505,0.00100662,0.00034513,0.03870558,-0.12459670,0.04984660,-0.0005513
 4,0.00014149,0.00035136,0.00116823,0.00489113,-0.00030923,-0.01887256,
 -0.03452865,0.02692790,0.00161253,-0.00379982,0.00553192,0.01610585,-0
 .03834148,0.00075212,-0.03847934,0.20218797,-0.00000874,-0.00001267,0.
 00000951,-0.00000750,0.00002594,-0.00002987,0.00009141,-0.00009877,0.0
 0000961,-0.00056122,0.00004399,0.00023372,0.00126361,-0.00107641,0.000
 03841,-0.00026459,0.00056224,-0.00024084,-0.00223678,-0.00000072,0.000
 26391,0.00176524,0.00046457,-0.00036968,-0.00086331,0.00083889,0.00064
 205,-0.00088915,0.00017895,0.00015325,-0.00121235,0.00009503,0.0001904
 6,0.00241377,0.01289339,0.00086629,-0.00268588,-0.00376945,-0.00165753
 ,-0.00000884,0.00000151,-0.00000228,-0.00000038,0.00000055,-0.00000025
 ,-0.00000027,0.00000134,-0.00000053,-0.00000031,-0.00000337,0.00000109
 ,0.00000065,-0.00000051,0.00000443,-0.00001608,0.00000671,-0.00000704,
 -0.00004168,0.00000826,-0.00003322,0.00001380,0.00002473,-0.00004669,-
 0.00040462,-0.00026556,0.00021692,-0.00019975,-0.00010216,0.00004280,-
 0.00060926,0.00004613,-0.00033057,-0.03097159,0.04813082,-0.09240307,0
 .00025057,0.00002265,-0.00016112,-0.01086514,0.01761814,-0.04539655,0.
 01033003,0.02509177,-0.00663648,-0.00077448,0.00595408,-0.00030564,0.0
 0576081,-0.01809787,0.00452914,0.03073203,-0.08858219,0.14041976\\0.00
 000042,-0.00000709,0.00000037,0.00000021,-0.00000781,0.00000351,-0.000
 01313,-0.00000228,-0.00000369,0.00000753,-0.00000481,-0.00000174,-0.00
 000110,0.00000718,0.00001540,0.00000621,-0.00000147,-0.00000354,0.0000
 1894,-0.00000847,-0.00000668,-0.00003100,0.00000576,-0.00000023,0.0000
 0365,0.00000634,-0.00000080,0.00001716,-0.00000037,0.00000002,-0.00000
 722,-0.00000261,-0.00000179,0.00001245,0.00001154,-0.00000179,-0.00000
 495,-0.00000090,-0.00000120,0.00000090,-0.00000823,0.00000207,0.,-0.00
 000793,0.00000281,-0.00000104,-0.00000781,0.00000191,0.00000230,-0.000
 00502,0.00000080,0.00000150,-0.00000513,0.00000037,-0.00000119,-0.0000
 0603,0.00000126,0.00000122,-0.00000515,0.00000403,0.00000209,-0.000004
 39,0.00000177,-0.00000365,0.00000181,-0.00000207,0.00000207,0.00000225
 ,0.00000034,0.00000250,0.00000531,-0.00000106,-0.00001057,0.00000475,-
 0.00000042,-0.00000353,0.00000386,-0.00000068,-0.00000050,0.00000864,0
 .00000301,0.00000448,0.00000892,-0.00000356,-0.00000248,0.00000403,-0.
 00000017,-0.00000194,0.00000493,-0.00000319,-0.00000132,0.00001016,-0.
 00000510\\\@


 THE WORLD OF CHEMICAL REACTIONS IS LIKE A STAGE,
 ON WHICH SCENE AFTER SCENE IS CEASELESSLY PLAYED.
 THE ACTORS ON IT ARE THE ELEMENTS.
   -- CLEMENS WINKLER   BER. 30,13(1897)
 (DISCOVERER OF GERMANIUM, FEB 6, 1886)
 Job cpu time:       0 days  3 hours 24 minutes 15.1 seconds.
 File lengths (MBytes):  RWF=    643 Int=      0 D2E=      0 Chk=     22 Scr=      1
 Normal termination of Gaussian 09 at Tue Oct 30 15:23:55 2018.
WARNING: pbs_rusage is deprecated and values produced may not be accurate


=============================================================================
                                     Resource usage:
                                       CPU time:              18:14:24
   JobId:    1827658.r-man2            Elapsed time:          04:35:52
   Project:             q95            Requested time:        38:00:00
   Service Units:     18.39 
                                       Max physical memory:      815MB
                                       Max virtual memory:      1528MB
                                       Requested memory:           0MB

                                       Number of cpus:               4

                                       Max jobfs disk use:       0.6GB
                                       Requested jobfs:         16.0GB
=============================================================================

