 Entering Gaussian System, Link 0=/apps/gaussian/g09e01/g09/g09
 AtFile(1): /home/507/hio507/Basis/6-31pGd.gbs
 Initial command:
 /apps/gaussian/g09e01/g09/l1.exe "/jobfs/local/8296101.r-man2/Gau-15324.inp" -scrdir="/jobfs/local/8296101.r-man2/"
 Entering Link 1 = /apps/gaussian/g09e01/g09/l1.exe PID=     15325.
  
 Copyright (c) 1988,1990,1992,1993,1995,1998,2003,2009,2015,
            Gaussian, Inc.  All Rights Reserved.
  
 This is part of the Gaussian(R) 09 program.  It is based on
 the Gaussian(R) 03 system (copyright 2003, Gaussian, Inc.),
 the Gaussian(R) 98 system (copyright 1998, Gaussian, Inc.),
 the Gaussian(R) 94 system (copyright 1995, Gaussian, Inc.),
 the Gaussian 92(TM) system (copyright 1992, Gaussian, Inc.),
 the Gaussian 90(TM) system (copyright 1990, Gaussian, Inc.),
 the Gaussian 88(TM) system (copyright 1988, Gaussian, Inc.),
 the Gaussian 86(TM) system (copyright 1986, Carnegie Mellon
 University), and the Gaussian 82(TM) system (copyright 1983,
 Carnegie Mellon University). Gaussian is a federally registered
 trademark of Gaussian, Inc.
  
 This software contains proprietary and confidential information,
 including trade secrets, belonging to Gaussian, Inc.
  
 This software is provided under written license and may be
 used, copied, transmitted, or stored only in accord with that
 written license.
  
 The following legend is applicable only to US Government
 contracts under FAR:
  
                    RESTRICTED RIGHTS LEGEND
  
 Use, reproduction and disclosure by the US Government is
 subject to restrictions as set forth in subparagraphs (a)
 and (c) of the Commercial Computer Software - Restricted
 Rights clause in FAR 52.227-19.
  
 Gaussian, Inc.
 340 Quinnipiac St., Bldg. 40, Wallingford CT 06492
  
  
 ---------------------------------------------------------------
 Warning -- This program may not be used in any manner that
 competes with the business of Gaussian, Inc. or will provide
 assistance to any competitor of Gaussian, Inc.  The licensee
 of this program is prohibited from giving any competitor of
 Gaussian, Inc. access to this program.  By using this program,
 the user acknowledges that Gaussian, Inc. is engaged in the
 business of creating and licensing software in the field of
 computational chemistry and represents and warrants to the
 licensee that it is not a competitor of Gaussian, Inc. and that
 it will not use this program in any manner prohibited above.
 ---------------------------------------------------------------
  

 Cite this work as:
 Gaussian 09, Revision E.01,
 M. J. Frisch, G. W. Trucks, H. B. Schlegel, G. E. Scuseria, 
 M. A. Robb, J. R. Cheeseman, G. Scalmani, V. Barone, B. Mennucci, 
 G. A. Petersson, H. Nakatsuji, M. Caricato, X. Li, H. P. Hratchian, 
 A. F. Izmaylov, J. Bloino, G. Zheng, J. L. Sonnenberg, M. Hada, 
 M. Ehara, K. Toyota, R. Fukuda, J. Hasegawa, M. Ishida, T. Nakajima, 
 Y. Honda, O. Kitao, H. Nakai, T. Vreven, J. A. Montgomery, Jr., 
 J. E. Peralta, F. Ogliaro, M. Bearpark, J. J. Heyd, E. Brothers, 
 K. N. Kudin, V. N. Staroverov, T. Keith, R. Kobayashi, J. Normand, 
 K. Raghavachari, A. Rendell, J. C. Burant, S. S. Iyengar, J. Tomasi, 
 M. Cossi, N. Rega, J. M. Millam, M. Klene, J. E. Knox, J. B. Cross, 
 V. Bakken, C. Adamo, J. Jaramillo, R. Gomperts, R. E. Stratmann, 
 O. Yazyev, A. J. Austin, R. Cammi, C. Pomelli, J. W. Ochterski, 
 R. L. Martin, K. Morokuma, V. G. Zakrzewski, G. A. Voth, 
 P. Salvador, J. J. Dannenberg, S. Dapprich, A. D. Daniels, 
 O. Farkas, J. B. Foresman, J. V. Ortiz, J. Cioslowski, 
 and D. J. Fox, Gaussian, Inc., Wallingford CT, 2013.
 
 ******************************************
 Gaussian 09:  ES64L-G09RevE.01 30-Nov-2015
                10-Jul-2018 
 ******************************************
 %chk=aryl_urea_dichloro_CF3.M062X.opt.chk
 %mem=196608000
 %nproc=4
 Will use up to    4 processors via shared memory.
 ----------------------------------------------------------------------
 # M062X/Gen 6D SCF=Tight INT(grid=ultrafine) OPT IOP(2/17=4) Freq=Nora
 man maxdisk=2147483648
 ----------------------------------------------------------------------
 1/14=-1,18=20,19=15,26=4,38=1/1,3;
 2/9=110,12=2,17=4,18=5,40=1/2;
 3/5=7,8=2,11=2,16=1,25=1,30=1,71=1,74=-55,75=-5/1,2,3;
 4//1;
 5/5=2,32=2,38=5/2;
 6/7=2,8=2,9=2,10=2,28=1/1;
 7//1,2,3,16;
 1/14=-1,18=20,19=15,26=4/3(2);
 2/9=110,17=4/2;
 99//99;
 2/9=110,17=4/2;
 3/5=7,6=1,8=2,11=2,16=1,25=1,30=1,71=1,74=-55,75=-5,82=7/1,2,3;
 4/5=5,16=3,69=1/1;
 5/5=2,32=2,38=5/2;
 7//1,2,3,16;
 1/14=-1,18=20,19=15,26=4/3(-5);
 2/9=110,17=4/2;
 6/7=2,8=2,9=2,10=2,19=2,28=1/1;
 99/9=1/99;
 --------------------------------
 aryl_urea_dichloro_CF3.M062X.opt
 --------------------------------
 Symbolic Z-matrix:
 Charge =  0 Multiplicity = 1
 C                    -4.19878   3.52106  -1.09495 
 C                    -4.2755    2.27429  -0.46896 
 C                    -3.11989   1.60208  -0.06392 
 C                    -1.83931   2.17399  -0.25973 
 C                    -1.76514   3.43673  -0.92071 
 C                    -2.93852   4.08859  -1.32282 
 N                    -0.69115   1.42839   0.18017 
 C                     0.45047   1.93866   0.73166 
 N                     1.45815   1.096     1.09449 
 O                     0.55923   3.13504   0.95315 
 C                     2.68023   1.58329   1.7101 
 C                     3.64265   0.4283    2.00985 
 C                     4.92961   0.93439   2.65476 
 H                    -0.76599   0.40065   0.15701 
 H                     1.35111   0.08357   0.92387 
 H                     2.42922   2.10626   2.65937 
 H                     3.17562   2.3022    1.02058 
 H                     3.89637  -0.09758   1.06365 
 H                     3.15272  -0.29294   2.69976 
 H                     5.44943   1.64276   1.97497 
 H                     5.60537   0.07738   2.8593 
 H                     4.70502   1.44728   3.61422 
 H                    -5.24364   1.81957  -0.29449 
 H                    -2.85764   5.04137  -1.83098 
 C                    -5.47029   4.21213  -1.52218 
 F                    -5.21619   5.42963  -2.13008 
 F                    -6.153     3.40831  -2.41709 
 F                    -6.26859   4.43259  -0.41448 
 Cl                   -0.2668    4.23843  -1.3923 
 Cl                   -3.32969   0.0412    0.72716 
 

 GradGradGradGradGradGradGradGradGradGradGradGradGradGradGradGradGradGrad
 Berny optimization.
 Initialization pass.
                           ----------------------------
                           !    Initial Parameters    !
                           ! (Angstroms and Degrees)  !
 --------------------------                            --------------------------
 ! Name  Definition              Value          Derivative Info.                !
 --------------------------------------------------------------------------------
 ! R1    R(1,2)                  1.3972         estimate D2E/DX2                !
 ! R2    R(1,6)                  1.4008         estimate D2E/DX2                !
 ! R3    R(1,25)                 1.5089         estimate D2E/DX2                !
 ! R4    R(2,3)                  1.3969         estimate D2E/DX2                !
 ! R5    R(2,23)                 1.0837         estimate D2E/DX2                !
 ! R6    R(3,4)                  1.4161         estimate D2E/DX2                !
 ! R7    R(3,30)                 1.7624         estimate D2E/DX2                !
 ! R8    R(4,5)                  1.4272         estimate D2E/DX2                !
 ! R9    R(4,7)                  1.438          estimate D2E/DX2                !
 ! R10   R(5,6)                  1.4012         estimate D2E/DX2                !
 ! R11   R(5,29)                 1.7636         estimate D2E/DX2                !
 ! R12   R(6,24)                 1.0828         estimate D2E/DX2                !
 ! R13   R(7,8)                  1.3667         estimate D2E/DX2                !
 ! R14   R(7,14)                 1.0307         estimate D2E/DX2                !
 ! R15   R(8,9)                  1.3628         estimate D2E/DX2                !
 ! R16   R(8,10)                 1.2216         estimate D2E/DX2                !
 ! R17   R(9,11)                 1.4526         estimate D2E/DX2                !
 ! R18   R(9,15)                 1.0323         estimate D2E/DX2                !
 ! R19   R(11,12)                1.533          estimate D2E/DX2                !
 ! R20   R(11,16)                1.1125         estimate D2E/DX2                !
 ! R21   R(11,17)                1.1125         estimate D2E/DX2                !
 ! R22   R(12,13)                1.5259         estimate D2E/DX2                !
 ! R23   R(12,18)                1.1119         estimate D2E/DX2                !
 ! R24   R(12,19)                1.1118         estimate D2E/DX2                !
 ! R25   R(13,20)                1.1109         estimate D2E/DX2                !
 ! R26   R(13,21)                1.1104         estimate D2E/DX2                !
 ! R27   R(13,22)                1.1109         estimate D2E/DX2                !
 ! R28   R(25,26)                1.3843         estimate D2E/DX2                !
 ! R29   R(25,27)                1.3831         estimate D2E/DX2                !
 ! R30   R(25,28)                1.3831         estimate D2E/DX2                !
 ! A1    A(2,1,6)              118.9341         estimate D2E/DX2                !
 ! A2    A(2,1,25)             119.2921         estimate D2E/DX2                !
 ! A3    A(6,1,25)             121.7695         estimate D2E/DX2                !
 ! A4    A(1,2,3)              120.9229         estimate D2E/DX2                !
 ! A5    A(1,2,23)             119.7084         estimate D2E/DX2                !
 ! A6    A(3,2,23)             119.3688         estimate D2E/DX2                !
 ! A7    A(2,3,4)              120.9079         estimate D2E/DX2                !
 ! A8    A(2,3,30)             117.2485         estimate D2E/DX2                !
 ! A9    A(4,3,30)             121.8296         estimate D2E/DX2                !
 ! A10   A(3,4,5)              117.928          estimate D2E/DX2                !
 ! A11   A(3,4,7)              118.057          estimate D2E/DX2                !
 ! A12   A(5,4,7)              123.9833         estimate D2E/DX2                !
 ! A13   A(4,5,6)              120.0652         estimate D2E/DX2                !
 ! A14   A(4,5,29)             124.7645         estimate D2E/DX2                !
 ! A15   A(6,5,29)             115.0395         estimate D2E/DX2                !
 ! A16   A(1,6,5)              121.2128         estimate D2E/DX2                !
 ! A17   A(1,6,24)             120.001          estimate D2E/DX2                !
 ! A18   A(5,6,24)             118.7802         estimate D2E/DX2                !
 ! A19   A(4,7,8)              126.6434         estimate D2E/DX2                !
 ! A20   A(4,7,14)             116.8827         estimate D2E/DX2                !
 ! A21   A(8,7,14)             116.2318         estimate D2E/DX2                !
 ! A22   A(7,8,9)              119.6194         estimate D2E/DX2                !
 ! A23   A(7,8,10)             120.8776         estimate D2E/DX2                !
 ! A24   A(9,8,10)             119.4384         estimate D2E/DX2                !
 ! A25   A(8,9,11)             121.8375         estimate D2E/DX2                !
 ! A26   A(8,9,15)             119.0634         estimate D2E/DX2                !
 ! A27   A(11,9,15)            119.0987         estimate D2E/DX2                !
 ! A28   A(9,11,12)            110.9963         estimate D2E/DX2                !
 ! A29   A(9,11,16)            109.2389         estimate D2E/DX2                !
 ! A30   A(9,11,17)            109.1927         estimate D2E/DX2                !
 ! A31   A(12,11,16)           109.207          estimate D2E/DX2                !
 ! A32   A(12,11,17)           109.1775         estimate D2E/DX2                !
 ! A33   A(16,11,17)           108.9991         estimate D2E/DX2                !
 ! A34   A(11,12,13)           111.2388         estimate D2E/DX2                !
 ! A35   A(11,12,18)           109.4637         estimate D2E/DX2                !
 ! A36   A(11,12,19)           109.4767         estimate D2E/DX2                !
 ! A37   A(13,12,18)           108.9102         estimate D2E/DX2                !
 ! A38   A(13,12,19)           108.938          estimate D2E/DX2                !
 ! A39   A(18,12,19)           108.7719         estimate D2E/DX2                !
 ! A40   A(12,13,20)           110.3357         estimate D2E/DX2                !
 ! A41   A(12,13,21)           109.5821         estimate D2E/DX2                !
 ! A42   A(12,13,22)           110.3438         estimate D2E/DX2                !
 ! A43   A(20,13,21)           108.6688         estimate D2E/DX2                !
 ! A44   A(20,13,22)           109.1907         estimate D2E/DX2                !
 ! A45   A(21,13,22)           108.6801         estimate D2E/DX2                !
 ! A46   A(1,25,26)            111.8668         estimate D2E/DX2                !
 ! A47   A(1,25,27)            109.4487         estimate D2E/DX2                !
 ! A48   A(1,25,28)            109.4278         estimate D2E/DX2                !
 ! A49   A(26,25,27)           108.5174         estimate D2E/DX2                !
 ! A50   A(26,25,28)           108.5089         estimate D2E/DX2                !
 ! A51   A(27,25,28)           109.0218         estimate D2E/DX2                !
 ! D1    D(6,1,2,3)              0.5019         estimate D2E/DX2                !
 ! D2    D(6,1,2,23)          -179.4547         estimate D2E/DX2                !
 ! D3    D(25,1,2,3)           179.7627         estimate D2E/DX2                !
 ! D4    D(25,1,2,23)           -0.194          estimate D2E/DX2                !
 ! D5    D(2,1,6,5)             -0.7799         estimate D2E/DX2                !
 ! D6    D(2,1,6,24)           178.3205         estimate D2E/DX2                !
 ! D7    D(25,1,6,5)           179.9785         estimate D2E/DX2                !
 ! D8    D(25,1,6,24)           -0.9211         estimate D2E/DX2                !
 ! D9    D(2,1,25,26)         -179.7            estimate D2E/DX2                !
 ! D10   D(2,1,25,27)          -59.3929         estimate D2E/DX2                !
 ! D11   D(2,1,25,28)           60.0175         estimate D2E/DX2                !
 ! D12   D(6,1,25,26)           -0.4611         estimate D2E/DX2                !
 ! D13   D(6,1,25,27)          119.8461         estimate D2E/DX2                !
 ! D14   D(6,1,25,28)         -120.7435         estimate D2E/DX2                !
 ! D15   D(1,2,3,4)              0.886          estimate D2E/DX2                !
 ! D16   D(1,2,3,30)           179.5503         estimate D2E/DX2                !
 ! D17   D(23,2,3,4)          -179.1572         estimate D2E/DX2                !
 ! D18   D(23,2,3,30)           -0.4928         estimate D2E/DX2                !
 ! D19   D(2,3,4,5)             -1.9426         estimate D2E/DX2                !
 ! D20   D(2,3,4,7)           -179.9766         estimate D2E/DX2                !
 ! D21   D(30,3,4,5)           179.455          estimate D2E/DX2                !
 ! D22   D(30,3,4,7)             1.421          estimate D2E/DX2                !
 ! D23   D(3,4,5,6)              1.6554         estimate D2E/DX2                !
 ! D24   D(3,4,5,29)          -173.9746         estimate D2E/DX2                !
 ! D25   D(7,4,5,6)            179.563          estimate D2E/DX2                !
 ! D26   D(7,4,5,29)             3.933          estimate D2E/DX2                !
 ! D27   D(3,4,7,8)           -143.5644         estimate D2E/DX2                !
 ! D28   D(3,4,7,14)            30.5391         estimate D2E/DX2                !
 ! D29   D(5,4,7,8)             38.5305         estimate D2E/DX2                !
 ! D30   D(5,4,7,14)          -147.366          estimate D2E/DX2                !
 ! D31   D(4,5,6,1)             -0.3188         estimate D2E/DX2                !
 ! D32   D(4,5,6,24)          -179.43           estimate D2E/DX2                !
 ! D33   D(29,5,6,1)           175.7195         estimate D2E/DX2                !
 ! D34   D(29,5,6,24)           -3.3917         estimate D2E/DX2                !
 ! D35   D(4,7,8,9)           -179.7319         estimate D2E/DX2                !
 ! D36   D(4,7,8,10)             3.2053         estimate D2E/DX2                !
 ! D37   D(14,7,8,9)             6.1312         estimate D2E/DX2                !
 ! D38   D(14,7,8,10)         -170.9317         estimate D2E/DX2                !
 ! D39   D(7,8,9,11)          -178.6917         estimate D2E/DX2                !
 ! D40   D(7,8,9,15)             1.5311         estimate D2E/DX2                !
 ! D41   D(10,8,9,11)           -1.5863         estimate D2E/DX2                !
 ! D42   D(10,8,9,15)          178.6366         estimate D2E/DX2                !
 ! D43   D(8,9,11,12)         -179.7812         estimate D2E/DX2                !
 ! D44   D(8,9,11,16)           59.7438         estimate D2E/DX2                !
 ! D45   D(8,9,11,17)          -59.3727         estimate D2E/DX2                !
 ! D46   D(15,9,11,12)          -0.0041         estimate D2E/DX2                !
 ! D47   D(15,9,11,16)        -120.4792         estimate D2E/DX2                !
 ! D48   D(15,9,11,17)         120.4043         estimate D2E/DX2                !
 ! D49   D(9,11,12,13)         179.9077         estimate D2E/DX2                !
 ! D50   D(9,11,12,18)          59.5014         estimate D2E/DX2                !
 ! D51   D(9,11,12,19)         -59.6427         estimate D2E/DX2                !
 ! D52   D(16,11,12,13)        -59.5983         estimate D2E/DX2                !
 ! D53   D(16,11,12,18)        179.9954         estimate D2E/DX2                !
 ! D54   D(16,11,12,19)         60.8513         estimate D2E/DX2                !
 ! D55   D(17,11,12,13)         59.4902         estimate D2E/DX2                !
 ! D56   D(17,11,12,18)        -60.9161         estimate D2E/DX2                !
 ! D57   D(17,11,12,19)        179.9399         estimate D2E/DX2                !
 ! D58   D(11,12,13,20)        -60.3626         estimate D2E/DX2                !
 ! D59   D(11,12,13,21)       -179.9778         estimate D2E/DX2                !
 ! D60   D(11,12,13,22)         60.3881         estimate D2E/DX2                !
 ! D61   D(18,12,13,20)         60.3698         estimate D2E/DX2                !
 ! D62   D(18,12,13,21)        -59.2454         estimate D2E/DX2                !
 ! D63   D(18,12,13,22)       -178.8795         estimate D2E/DX2                !
 ! D64   D(19,12,13,20)        178.8706         estimate D2E/DX2                !
 ! D65   D(19,12,13,21)         59.2554         estimate D2E/DX2                !
 ! D66   D(19,12,13,22)        -60.3787         estimate D2E/DX2                !
 --------------------------------------------------------------------------------
 Trust Radius=3.00D-01 FncErr=1.00D-07 GrdErr=1.00D-06
 Number of steps in this run=    157 maximum allowed number of steps=    180.
 GradGradGradGradGradGradGradGradGradGradGradGradGradGradGradGradGradGrad

                          Input orientation:                          
 ---------------------------------------------------------------------
 Center     Atomic      Atomic             Coordinates (Angstroms)
 Number     Number       Type             X           Y           Z
 ---------------------------------------------------------------------
      1          6           0       -4.198780    3.521060   -1.094950
      2          6           0       -4.275500    2.274290   -0.468960
      3          6           0       -3.119890    1.602080   -0.063920
      4          6           0       -1.839310    2.173990   -0.259730
      5          6           0       -1.765140    3.436730   -0.920710
      6          6           0       -2.938520    4.088590   -1.322820
      7          7           0       -0.691150    1.428390    0.180170
      8          6           0        0.450470    1.938660    0.731660
      9          7           0        1.458150    1.096000    1.094490
     10          8           0        0.559230    3.135040    0.953150
     11          6           0        2.680230    1.583290    1.710100
     12          6           0        3.642650    0.428300    2.009850
     13          6           0        4.929610    0.934390    2.654760
     14          1           0       -0.765990    0.400650    0.157010
     15          1           0        1.351110    0.083570    0.923870
     16          1           0        2.429220    2.106260    2.659370
     17          1           0        3.175620    2.302200    1.020580
     18          1           0        3.896370   -0.097580    1.063650
     19          1           0        3.152720   -0.292940    2.699760
     20          1           0        5.449430    1.642760    1.974970
     21          1           0        5.605370    0.077380    2.859300
     22          1           0        4.705020    1.447280    3.614220
     23          1           0       -5.243640    1.819570   -0.294490
     24          1           0       -2.857640    5.041370   -1.830980
     25          6           0       -5.470290    4.212130   -1.522180
     26          9           0       -5.216190    5.429630   -2.130080
     27          9           0       -6.153000    3.408310   -2.417090
     28          9           0       -6.268590    4.432590   -0.414480
     29         17           0       -0.266800    4.238430   -1.392300
     30         17           0       -3.329690    0.041200    0.727160
 ---------------------------------------------------------------------
                    Distance matrix (angstroms):
                    1          2          3          4          5
     1  C    0.000000
     2  C    1.397206   0.000000
     3  C    2.430949   1.396910   0.000000
     4  C    2.842409   2.447215   1.416089   0.000000
     5  C    2.441326   2.803079   2.436263   1.427203   0.000000
     6  C    1.400811   2.410037   2.792930   2.450330   1.401226
     7  N    4.278863   3.739583   2.447147   1.437951   2.529589
     8  C    5.239849   4.887630   3.673378   2.506258   3.143798
     9  N    6.532643   6.058670   4.749366   3.724140   4.464263
    10  O    5.194457   5.112524   4.113432   2.854416   3.000844
    11  C    7.677502   7.321746   6.065385   4.965420   5.487961
    12  C    8.982927   8.499958   7.170093   6.184684   6.847118
    13  C   10.201896   9.812594   8.522411   7.473228   7.991581
    14  H    4.805040   4.027285   2.651997   2.114337   3.373064
    15  H    6.833246   6.196610   4.824048   3.993688   4.935299
    16  H    7.747707   7.400537   6.201865   5.171661   5.672722
    17  H    7.768067   7.598598   6.426488   5.177369   5.428340
    18  H    9.126092   8.646046   7.306720   6.309468   6.962882
    19  H    9.109938   8.474073   7.111587   6.305925   7.155668
    20  H   10.297591  10.047183   8.808631   7.642108   7.978303
    21  H   11.118290  10.655295   9.327384   8.339507   8.938575
    22  H   10.283701   9.899800   8.647652   7.639624   8.147789
    23  H    2.151171   1.083746   2.147272   3.422906   3.886814
    24  H    2.156789   3.394430   3.875563   3.424572   2.144066
    25  C    1.508920   2.508390   3.803060   4.351070   3.832903
    26  F    2.397761   3.687870   4.828419   5.049824   4.164610
    27  F    2.362148   2.933636   4.242597   4.978521   4.636084
    28  F    2.361787   2.938305   4.248410   4.974308   4.639943
    29  Cl   4.007930   4.558517   4.105491   2.831504   1.763560
    30  Cl   4.023037   2.704062   1.762433   2.782800   4.085697
                    6          7          8          9         10
     6  C    0.000000
     7  N    3.792930   0.000000
     8  C    4.508696   1.366680   0.000000
     9  N    5.842062   2.359228   1.362769   0.000000
    10  O    4.280602   2.252466   1.221561   2.232872   0.000000
    11  C    6.858971   3.705521   2.460785   1.452552   2.734875
    12  C    8.235060   4.809338   3.755658   2.460843   4.236807
    13  C    9.363631   6.161215   4.976903   3.809409   5.180594
    14  H    4.528872   1.030722   2.043397   2.511808   3.141168
    15  H    6.284006   2.555867   2.071100   1.032271   3.152681
    16  H    6.971377   4.042604   2.767600   2.100584   2.732478
    17  H    6.787151   4.052375   2.764431   2.100020   2.746573
    18  H    8.362714   4.914719   4.016306   2.714867   4.647424
    19  H    8.513646   4.907815   4.019404   2.716176   4.639815
    20  H    9.338908   6.401092   5.159746   4.123652   5.213931
    21  H   10.323662   6.974893   5.879133   4.620776   6.200502
    22  H    9.474945   6.396226   5.162538   4.124876   5.207437
    23  H    3.394038   4.593853   5.787059   6.882355   6.079504
    24  H    1.082847   4.668193   5.209369   6.538376   4.802132
    25  C    2.542610   5.786828   6.730814   8.034955   6.606247
    26  F    2.763664   6.467083   7.244823   8.586327   6.937357
    27  F    3.463104   6.363776   7.461924   8.695262   7.515798
    28  F    3.468830   6.362913   7.258036   8.550575   7.083302
    29  Cl   2.676820   3.247932   3.211639   4.362848   2.720465
    30  Cl   4.553767   3.030740   4.229655   4.916396   4.974597
                   11         12         13         14         15
    11  C    0.000000
    12  C    1.533005   0.000000
    13  C    2.524513   1.525877   0.000000
    14  H    3.960702   4.782247   6.242074   0.000000
    15  H    2.152644   2.559169   4.065161   2.273923   0.000000
    16  H    1.112482   2.170216   2.761386   4.402304   2.874988
    17  H    1.112511   2.169856   2.760060   4.460710   2.874110
    18  H    2.173067   1.111853   2.159671   4.775754   2.555524
    19  H    2.173226   1.111843   2.160024   4.722598   2.557605
    20  H    2.782474   2.177288   1.110907   6.593881   4.509114
    21  H    3.484949   2.167252   1.110385   6.928283   4.673827
    22  H    2.782795   2.177373   1.110883   6.555889   4.510698
    23  H    8.176914   9.285029  10.629047   4.718743   6.927397
    24  H    7.427353   8.847947   9.880810   5.464740   7.062758
    25  C    9.153656  10.480376  11.676829   6.283112   8.340244
    26  F    9.586176  10.983231  12.084665   7.094061   9.002022
    27  F    9.919191  11.154955  12.436567   6.685199   8.861579
    28  F    9.628797  10.961040  12.126719   6.845564   8.874964
    29  Cl   5.035836   6.432380   7.368721   4.168706   5.024454
    30  Cl   6.281986   7.099906   8.528157   2.650817   4.685123
                   16         17         18         19         20
    16  H    0.000000
    17  H    1.811391   0.000000
    18  H    3.091240   2.506049   0.000000
    19  H    2.506241   3.091104   1.807771   0.000000
    20  H    3.131278   2.552633   2.504253   3.089843   0.000000
    21  H    3.774156   3.772850   2.485086   2.485575   1.804653
    22  H    2.554459   3.130003   3.089646   2.504843   1.810939
    23  H    8.226801   8.535003   9.437150   9.161173  10.932678
    24  H    7.531866   7.213506   8.966847   9.225340   9.749011
    25  C    9.182718   9.212232  10.629884  10.605505  11.750404
    26  F    9.614360   9.493680  11.126038  11.230041  12.039405
    27  F   10.055858  10.003210  11.198065  11.246236  12.530911
    28  F    9.513793   9.787291  11.226474  10.990460  12.280253
    29  Cl   5.313257   4.628308   6.493432   6.997956   7.123994
    30  Cl   6.415836   6.893277   7.235221   6.784131   9.010825
                   21         22         23         24         25
    21  H    0.000000
    22  H    1.804760   0.000000
    23  H   11.431651  10.695441   0.000000
    24  H   10.874855   9.988068   4.293459   0.000000
    25  C   12.608083  11.728765   2.698692   2.758430   0.000000
    26  F   13.063179  12.136165   4.050022   2.408934   1.384347
    27  F   13.311448  12.574535   2.802938   3.724219   1.383143
    28  F   13.064318  12.064933   2.809412   3.743216   1.383071
    29  Cl   8.358996   7.587803   5.641366   2.747654   5.205177
    30  Cl   9.186002   8.652672   2.805276   5.636365   5.199842
                   26         27         28         29         30
    26  F    0.000000
    27  F    2.246269   0.000000
    28  F    2.246089   2.252323   0.000000
    29  Cl   5.143903   6.032134   6.084021   0.000000
    30  Cl   6.384190   5.403223   5.405995   5.611608   0.000000
 Stoichiometry    C11H11Cl2F3N2O
 Framework group  C1[X(C11H11Cl2F3N2O)]
 Deg. of freedom    84
 Full point group                 C1      NOp   1
 Largest Abelian subgroup         C1      NOp   1
 Largest concise Abelian subgroup C1      NOp   1
                         Standard orientation:                         
 ---------------------------------------------------------------------
 Center     Atomic      Atomic             Coordinates (Angstroms)
 Number     Number       Type             X           Y           Z
 ---------------------------------------------------------------------
      1          6           0        2.921978   -0.128854    0.054986
      2          6           0        2.416009    1.173281    0.029988
      3          6           0        1.049701    1.409379   -0.139771
      4          6           0        0.136869    0.334954   -0.272645
      5          6           0        0.661676   -0.992253   -0.270060
      6          6           0        2.036984   -1.202986   -0.104059
      7          7           0       -1.255920    0.648178   -0.445072
      8          6           0       -2.317191   -0.045106    0.065686
      9          7           0       -3.586173    0.378719   -0.193541
     10          8           0       -2.143498   -1.009040    0.795667
     11          6           0       -4.747924   -0.304937    0.347620
     12          6           0       -6.045374    0.375530   -0.103705
     13          6           0       -7.269696   -0.339745    0.459960
     14          1           0       -1.478746    1.529589   -0.930717
     15          1           0       -3.725477    1.206727   -0.794024
     16          1           0       -4.695720   -0.292911    1.458812
     17          1           0       -4.747594   -1.360562   -0.003573
     18          1           0       -6.101891    0.365946   -1.214080
     19          1           0       -6.051395    1.431007    0.245760
     20          1           0       -7.297585   -1.393021    0.107901
     21          1           0       -8.192007    0.174367    0.116470
     22          1           0       -7.247514   -0.326403    1.570541
     23          1           0        3.090638    2.013891    0.142930
     24          1           0        2.413901   -2.218061   -0.114747
     25          6           0        4.404967   -0.341311    0.235109
     26          9           0        4.737655   -1.685079    0.230308
     27          9           0        5.087929    0.283988   -0.792339
     28          9           0        4.804979    0.205733    1.440770
     29         17           0       -0.285298   -2.448655   -0.573833
     30         17           0        0.515473    3.088888   -0.144263
 ---------------------------------------------------------------------
 Rotational constants (GHZ):      0.6221456      0.1284847      0.1108227
 General basis read from cards:  (6D, 7F)
 There are   391 symmetry adapted cartesian basis functions of A   symmetry.
 There are   391 symmetry adapted basis functions of A   symmetry.
   391 basis functions,   700 primitive gaussians,   391 cartesian basis functions
    80 alpha electrons       80 beta electrons
       nuclear repulsion energy      1697.2666723101 Hartrees.
 NAtoms=   30 NActive=   30 NUniq=   30 SFac= 1.00D+00 NAtFMM=   60 NAOKFM=F Big=F
 Integral buffers will be    131072 words long.
 Raffenetti 2 integral format.
 Two-electron integral symmetry is turned on.
 One-electron integrals computed using PRISM.
 NBasis=   391 RedAO= T EigKep=  1.13D-06  NBF=   391
 NBsUse=   390 1.00D-06 EigRej=  7.74D-07 NBFU=   390
 ExpMin= 4.38D-02 ExpMax= 2.52D+04 ExpMxC= 3.78D+03 IAcc=3 IRadAn=         5 AccDes= 0.00D+00
 Harris functional with IExCor= 1009 and IRadAn=       5 diagonalized for initial guess.
 HarFok:  IExCor= 1009 AccDes= 0.00D+00 IRadAn=         5 IDoV= 1 UseB2=F ITyADJ=14
 ICtDFT=  3500011 ScaDFX=  1.000000  1.000000  1.000000  1.000000
 FoFCou: FMM=F IPFlag=           0 FMFlag=      100000 FMFlg1=           0
         NFxFlg=           0 DoJE=T BraDBF=F KetDBF=T FulRan=T
         wScrn=  0.000000 ICntrl=     500 IOpCl=  0 I1Cent=   200000004 NGrid=           0
         NMat0=    1 NMatS0=      1 NMatT0=    0 NMatD0=    1 NMtDS0=    0 NMtDT0=    0
 Petite list used in FoFCou.
 Requested convergence on RMS density matrix=1.00D-08 within 128 cycles.
 Requested convergence on MAX density matrix=1.00D-06.
 Requested convergence on             energy=1.00D-06.
 No special actions if energy rises.
 SCF Done:  E(RM062X) =  -1830.07730441     A.U. after   16 cycles
            NFock= 16  Conv=0.59D-08     -V/T= 2.0058

 **********************************************************************

            Population analysis using the SCF density.

 **********************************************************************

 Orbital symmetries:
       Occupied  (A) (A) (A) (A) (A) (A) (A) (A) (A) (A) (A) (A)
                 (A) (A) (A) (A) (A) (A) (A) (A) (A) (A) (A) (A)
                 (A) (A) (A) (A) (A) (A) (A) (A) (A) (A) (A) (A)
                 (A) (A) (A) (A) (A) (A) (A) (A) (A) (A) (A) (A)
                 (A) (A) (A) (A) (A) (A) (A) (A) (A) (A) (A) (A)
                 (A) (A) (A) (A) (A) (A) (A) (A) (A) (A) (A) (A)
                 (A) (A) (A) (A) (A) (A) (A) (A)
       Virtual   (A) (A) (A) (A) (A) (A) (A) (A) (A) (A) (A) (A)
                 (A) (A) (A) (A) (A) (A) (A) (A) (A) (A) (A) (A)
                 (A) (A) (A) (A) (A) (A) (A) (A) (A) (A) (A) (A)
                 (A) (A) (A) (A) (A) (A) (A) (A) (A) (A) (A) (A)
                 (A) (A) (A) (A) (A) (A) (A) (A) (A) (A) (A) (A)
                 (A) (A) (A) (A) (A) (A) (A) (A) (A) (A) (A) (A)
                 (A) (A) (A) (A) (A) (A) (A) (A) (A) (A) (A) (A)
                 (A) (A) (A) (A) (A) (A) (A) (A) (A) (A) (A) (A)
                 (A) (A) (A) (A) (A) (A) (A) (A) (A) (A) (A) (A)
                 (A) (A) (A) (A) (A) (A) (A) (A) (A) (A) (A) (A)
                 (A) (A) (A) (A) (A) (A) (A) (A) (A) (A) (A) (A)
                 (A) (A) (A) (A) (A) (A) (A) (A) (A) (A) (A) (A)
                 (A) (A) (A) (A) (A) (A) (A) (A) (A) (A) (A) (A)
                 (A) (A) (A) (A) (A) (A) (A) (A) (A) (A) (A) (A)
                 (A) (A) (A) (A) (A) (A) (A) (A) (A) (A) (A) (A)
                 (A) (A) (A) (A) (A) (A) (A) (A) (A) (A) (A) (A)
                 (A) (A) (A) (A) (A) (A) (A) (A) (A) (A) (A) (A)
                 (A) (A) (A) (A) (A) (A) (A) (A) (A) (A) (A) (A)
                 (A) (A) (A) (A) (A) (A) (A) (A) (A) (A) (A) (A)
                 (A) (A) (A) (A) (A) (A) (A) (A) (A) (A) (A) (A)
                 (A) (A) (A) (A) (A) (A) (A) (A) (A) (A) (A) (A)
                 (A) (A) (A) (A) (A) (A) (A) (A) (A) (A) (A) (A)
                 (A) (A) (A) (A) (A) (A) (A) (A) (A) (A) (A) (A)
                 (A) (A) (A) (A) (A) (A) (A) (A) (A) (A) (A) (A)
                 (A) (A) (A) (A) (A) (A) (A) (A) (A) (A) (A) (A)
                 (A) (A) (A) (A) (A) (A) (A) (A) (A) (A)
 The electronic state is 1-A.
 Alpha  occ. eigenvalues -- -102.70522-102.67900 -25.31547 -25.31242 -25.31197
 Alpha  occ. eigenvalues --  -19.60652 -14.82726 -14.80052 -10.83512 -10.69060
 Alpha  occ. eigenvalues --  -10.66050 -10.65643 -10.65207 -10.61046 -10.60353
 Alpha  occ. eigenvalues --  -10.60014 -10.59594 -10.56840 -10.55594  -9.85099
 Alpha  occ. eigenvalues --   -9.82436  -7.57511  -7.56834  -7.56819  -7.54874
 Alpha  occ. eigenvalues --   -7.54165  -7.54116  -1.45290  -1.37565  -1.37420
 Alpha  occ. eigenvalues --   -1.18634  -1.07415  -1.04253  -1.01467  -0.99080
 Alpha  occ. eigenvalues --   -0.95427  -0.90095  -0.88625  -0.85245  -0.82805
 Alpha  occ. eigenvalues --   -0.78784  -0.74150  -0.72755  -0.69664  -0.69161
 Alpha  occ. eigenvalues --   -0.68869  -0.68065  -0.65749  -0.65186  -0.63127
 Alpha  occ. eigenvalues --   -0.58744  -0.57555  -0.57209  -0.56747  -0.55918
 Alpha  occ. eigenvalues --   -0.54713  -0.54194  -0.53772  -0.53074  -0.52698
 Alpha  occ. eigenvalues --   -0.52275  -0.51641  -0.51039  -0.49724  -0.47738
 Alpha  occ. eigenvalues --   -0.47217  -0.46986  -0.45752  -0.44703  -0.43744
 Alpha  occ. eigenvalues --   -0.41526  -0.41410  -0.41160  -0.40469  -0.39208
 Alpha  occ. eigenvalues --   -0.37809  -0.34233  -0.32538  -0.31874  -0.30530
 Alpha virt. eigenvalues --   -0.02614  -0.01911  -0.00772   0.01398   0.01621
 Alpha virt. eigenvalues --    0.02310   0.02587   0.03615   0.03745   0.04226
 Alpha virt. eigenvalues --    0.04845   0.05008   0.05390   0.05578   0.06530
 Alpha virt. eigenvalues --    0.06778   0.07251   0.07818   0.08132   0.08279
 Alpha virt. eigenvalues --    0.08536   0.09142   0.09318   0.09636   0.10169
 Alpha virt. eigenvalues --    0.10422   0.10807   0.11238   0.11988   0.12314
 Alpha virt. eigenvalues --    0.12749   0.12964   0.14032   0.14363   0.15155
 Alpha virt. eigenvalues --    0.15223   0.15760   0.15973   0.16473   0.17114
 Alpha virt. eigenvalues --    0.17714   0.17761   0.18166   0.18496   0.18869
 Alpha virt. eigenvalues --    0.19097   0.19947   0.20148   0.20516   0.20751
 Alpha virt. eigenvalues --    0.21202   0.22026   0.22324   0.22682   0.22929
 Alpha virt. eigenvalues --    0.23464   0.23849   0.24101   0.24405   0.24892
 Alpha virt. eigenvalues --    0.25397   0.25645   0.25780   0.26488   0.26676
 Alpha virt. eigenvalues --    0.27098   0.27818   0.27980   0.28422   0.28755
 Alpha virt. eigenvalues --    0.29748   0.29806   0.30182   0.30775   0.31276
 Alpha virt. eigenvalues --    0.31396   0.31746   0.31960   0.32483   0.32691
 Alpha virt. eigenvalues --    0.33551   0.34191   0.34777   0.35869   0.36242
 Alpha virt. eigenvalues --    0.36761   0.37057   0.37498   0.38098   0.38585
 Alpha virt. eigenvalues --    0.39088   0.39844   0.40463   0.40691   0.41403
 Alpha virt. eigenvalues --    0.41612   0.42370   0.44709   0.45328   0.45731
 Alpha virt. eigenvalues --    0.46965   0.47409   0.48538   0.48844   0.51804
 Alpha virt. eigenvalues --    0.53782   0.55565   0.56664   0.57567   0.61588
 Alpha virt. eigenvalues --    0.65101   0.65939   0.66155   0.67753   0.68391
 Alpha virt. eigenvalues --    0.68582   0.69414   0.71032   0.71689   0.71835
 Alpha virt. eigenvalues --    0.73288   0.73766   0.74045   0.74980   0.75351
 Alpha virt. eigenvalues --    0.76064   0.76742   0.77904   0.78448   0.80260
 Alpha virt. eigenvalues --    0.80577   0.81726   0.82632   0.84074   0.84636
 Alpha virt. eigenvalues --    0.85299   0.86034   0.86680   0.87451   0.88588
 Alpha virt. eigenvalues --    0.90053   0.91222   0.93197   0.93721   0.94924
 Alpha virt. eigenvalues --    0.95515   0.96555   0.96859   0.97507   0.98025
 Alpha virt. eigenvalues --    0.99369   1.00265   1.01128   1.02154   1.03572
 Alpha virt. eigenvalues --    1.04029   1.04923   1.06125   1.06442   1.07987
 Alpha virt. eigenvalues --    1.08990   1.10053   1.11163   1.12287   1.13415
 Alpha virt. eigenvalues --    1.13514   1.14963   1.16598   1.17964   1.18834
 Alpha virt. eigenvalues --    1.19066   1.20438   1.20912   1.22114   1.23904
 Alpha virt. eigenvalues --    1.24264   1.26378   1.27597   1.30662   1.32336
 Alpha virt. eigenvalues --    1.34690   1.38140   1.39643   1.40619   1.41839
 Alpha virt. eigenvalues --    1.42206   1.44987   1.45497   1.46576   1.47697
 Alpha virt. eigenvalues --    1.48233   1.49983   1.50630   1.51601   1.54216
 Alpha virt. eigenvalues --    1.56549   1.57879   1.58505   1.58729   1.61548
 Alpha virt. eigenvalues --    1.65026   1.65671   1.67172   1.68488   1.70447
 Alpha virt. eigenvalues --    1.71853   1.73619   1.73696   1.74601   1.74982
 Alpha virt. eigenvalues --    1.76079   1.78196   1.79449   1.82128   1.82603
 Alpha virt. eigenvalues --    1.83758   1.84742   1.87013   1.87340   1.87663
 Alpha virt. eigenvalues --    1.87820   1.88985   1.89368   1.90320   1.90764
 Alpha virt. eigenvalues --    1.92192   1.92877   1.94989   1.96273   1.97789
 Alpha virt. eigenvalues --    2.00592   2.01289   2.02185   2.02817   2.03222
 Alpha virt. eigenvalues --    2.04161   2.04358   2.05299   2.06123   2.07476
 Alpha virt. eigenvalues --    2.08008   2.10085   2.11625   2.13193   2.14934
 Alpha virt. eigenvalues --    2.15884   2.18448   2.19087   2.19480   2.20741
 Alpha virt. eigenvalues --    2.23317   2.26201   2.27322   2.27591   2.28470
 Alpha virt. eigenvalues --    2.34176   2.34767   2.36118   2.37116   2.38410
 Alpha virt. eigenvalues --    2.39639   2.42111   2.46174   2.47858   2.49584
 Alpha virt. eigenvalues --    2.55844   2.57521   2.60835   2.64037   2.64247
 Alpha virt. eigenvalues --    2.64434   2.67807   2.71926   2.72614   2.76171
 Alpha virt. eigenvalues --    2.76424   2.77258   2.77763   2.80562   2.83772
 Alpha virt. eigenvalues --    2.91941   2.92862   2.96300   3.09063   3.10993
 Alpha virt. eigenvalues --    3.13357   3.24776   3.25421   3.26360   3.30224
 Alpha virt. eigenvalues --    3.34625   4.15079   4.22457   4.25185   4.27586
 Alpha virt. eigenvalues --    4.30929   4.33282   4.36596   4.40015   4.43802
 Alpha virt. eigenvalues --    4.45372   4.46247   4.48404   4.56470   4.59343
 Alpha virt. eigenvalues --    4.67804   4.75284   5.47229   5.96721   6.82486
          Condensed to atoms (all electrons):
               1          2          3          4          5          6
     1  C   13.401301  -0.471128  -0.358202   0.606666  -1.019454  -2.937389
     2  C   -0.471128  27.981801  -0.767398  -7.079988  -2.891782 -10.930499
     3  C   -0.358202  -0.767398  18.714357  -4.494364  -8.587494   2.543536
     4  C    0.606666  -7.079988  -4.494364  27.118559   0.399307  -8.032889
     5  C   -1.019454  -2.891782  -8.587494   0.399307  19.818817  -1.476301
     6  C   -2.937389 -10.930499   2.543536  -8.032889  -1.476301  26.105239
     7  N   -0.034930   0.335477   0.642585  -0.712938  -0.175844   0.058064
     8  C   -0.295727   0.238511  -0.451100  -0.816840   0.055880  -0.223453
     9  N   -0.003829   0.018409   0.020134  -0.174897  -0.019792  -0.009047
    10  O   -0.019921  -0.022727  -0.282405  -0.086741   0.373248  -0.013279
    11  C   -0.022604   0.016451  -0.057036  -0.396983  -0.022320  -0.013685
    12  C    0.000367  -0.001921  -0.008049   0.020921  -0.008246  -0.001782
    13  C   -0.000102   0.000096  -0.000386  -0.005294  -0.001670  -0.000330
    14  H   -0.005443  -0.051746  -0.255367   0.063690   0.198877   0.025330
    15  H    0.000112  -0.003356  -0.025840   0.016989   0.028448   0.002283
    16  H    0.000009  -0.000458  -0.007066  -0.003370   0.008854   0.000446
    17  H   -0.000048   0.000140   0.002993   0.003978  -0.004779   0.000072
    18  H    0.000001  -0.000002   0.000050   0.000072   0.000159   0.000039
    19  H   -0.000004   0.000033   0.000413  -0.000225  -0.000676  -0.000044
    20  H   -0.000000   0.000001   0.000023   0.000100  -0.000110  -0.000005
    21  H   -0.000000   0.000000   0.000001  -0.000025  -0.000001   0.000000
    22  H    0.000000  -0.000000  -0.000009   0.000038   0.000023   0.000002
    23  H    0.191788  -0.023383   0.012052   0.010877  -0.019744   0.119327
    24  H    0.063712   0.043608  -0.023674   0.041275  -0.004947   0.185793
    25  C   -1.640665   0.054153   0.021603  -1.013519  -0.654548   0.420418
    26  F   -0.058128  -0.001939   0.000703   0.035224   0.090710  -0.023786
    27  F    0.179363  -0.216119   0.028418   0.028361  -0.009996  -0.002165
    28  F    0.189623  -0.229415   0.053425   0.047804   0.011687  -0.020903
    29  Cl  -0.106346   0.050621   0.109246  -0.327550  -0.027104   0.085102
    30  Cl  -0.055671  -0.607581  -0.677525   0.575664   0.381623   0.089635
               7          8          9         10         11         12
     1  C   -0.034930  -0.295727  -0.003829  -0.019921  -0.022604   0.000367
     2  C    0.335477   0.238511   0.018409  -0.022727   0.016451  -0.001921
     3  C    0.642585  -0.451100   0.020134  -0.282405  -0.057036  -0.008049
     4  C   -0.712938  -0.816840  -0.174897  -0.086741  -0.396983   0.020921
     5  C   -0.175844   0.055880  -0.019792   0.373248  -0.022320  -0.008246
     6  C    0.058064  -0.223453  -0.009047  -0.013279  -0.013685  -0.001782
     7  N    7.980065   0.088486  -0.465262  -0.217501  -0.081681  -0.011635
     8  C    0.088486   6.538852   0.206220   0.749985  -0.516083   0.065298
     9  N   -0.465262   0.206220   7.769926  -0.175645   0.341558  -0.042770
    10  O   -0.217501   0.749985  -0.175645   8.420495  -0.075242   0.010215
    11  C   -0.081681  -0.516083   0.341558  -0.075242   6.594902  -0.275102
    12  C   -0.011635   0.065298  -0.042770   0.010215  -0.275102   6.067650
    13  C    0.001763  -0.038243  -0.002203  -0.002123  -0.023875   0.020600
    14  H    0.203522  -0.005335   0.034958   0.008092   0.009486  -0.000138
    15  H    0.032262   0.029666   0.235042   0.007879  -0.064193  -0.011790
    16  H    0.003018  -0.004434  -0.055837   0.001890   0.410835  -0.049512
    17  H   -0.002329   0.000426  -0.061089   0.000524   0.425467  -0.059002
    18  H    0.000584   0.006884   0.008156  -0.000183  -0.092597   0.422203
    19  H   -0.000053  -0.001030   0.007428  -0.000266  -0.078020   0.415731
    20  H    0.000038   0.001922   0.000841  -0.000055  -0.012216  -0.058974
    21  H    0.000009  -0.001783   0.000532   0.000008   0.027580  -0.084512
    22  H    0.000028   0.003373   0.000777  -0.000056  -0.007274  -0.063467
    23  H   -0.000298   0.000700  -0.000001  -0.000005   0.000005   0.000000
    24  H   -0.000531   0.000211  -0.000017  -0.000049   0.000002  -0.000000
    25  C    0.011472  -0.093019   0.000606  -0.003638  -0.002664   0.000022
    26  F   -0.000045   0.000092  -0.000001  -0.000006  -0.000002   0.000000
    27  F    0.000037  -0.000564  -0.000000   0.000001  -0.000004   0.000000
    28  F   -0.000090   0.000600  -0.000001  -0.000002   0.000005  -0.000000
    29  Cl   0.061308   0.034399   0.000852  -0.126384   0.015047   0.000158
    30  Cl  -0.030528   0.058922  -0.004004   0.006605   0.004709   0.001342
              13         14         15         16         17         18
     1  C   -0.000102  -0.005443   0.000112   0.000009  -0.000048   0.000001
     2  C    0.000096  -0.051746  -0.003356  -0.000458   0.000140  -0.000002
     3  C   -0.000386  -0.255367  -0.025840  -0.007066   0.002993   0.000050
     4  C   -0.005294   0.063690   0.016989  -0.003370   0.003978   0.000072
     5  C   -0.001670   0.198877   0.028448   0.008854  -0.004779   0.000159
     6  C   -0.000330   0.025330   0.002283   0.000446   0.000072   0.000039
     7  N    0.001763   0.203522   0.032262   0.003018  -0.002329   0.000584
     8  C   -0.038243  -0.005335   0.029666  -0.004434   0.000426   0.006884
     9  N   -0.002203   0.034958   0.235042  -0.055837  -0.061089   0.008156
    10  O   -0.002123   0.008092   0.007879   0.001890   0.000524  -0.000183
    11  C   -0.023875   0.009486  -0.064193   0.410835   0.425467  -0.092597
    12  C    0.020600  -0.000138  -0.011790  -0.049512  -0.059002   0.422203
    13  C    5.558469  -0.000038  -0.001011   0.005243   0.002906  -0.033811
    14  H   -0.000038   0.328760   0.002574   0.000011  -0.000001   0.000002
    15  H   -0.001011   0.002574   0.342451   0.002913   0.002671   0.001118
    16  H    0.005243   0.000011   0.002913   0.492283  -0.034910   0.003857
    17  H    0.002906  -0.000001   0.002671  -0.034910   0.495338  -0.005368
    18  H   -0.033811   0.000002   0.001118   0.003857  -0.005368   0.510762
    19  H   -0.032004   0.000002   0.001020  -0.005372   0.003914  -0.033853
    20  H    0.412971   0.000000   0.000002  -0.000327   0.002699  -0.004876
    21  H    0.409362  -0.000000  -0.000003  -0.000062  -0.000057  -0.003096
    22  H    0.411199  -0.000000   0.000001   0.002698  -0.000338   0.003962
    23  H    0.000000  -0.000004   0.000000  -0.000000   0.000000  -0.000000
    24  H   -0.000000   0.000002  -0.000000   0.000000  -0.000000  -0.000000
    25  C   -0.000006  -0.000306  -0.000006  -0.000003   0.000002   0.000000
    26  F   -0.000000  -0.000000   0.000000  -0.000000   0.000000   0.000000
    27  F   -0.000000  -0.000000  -0.000000  -0.000000  -0.000000   0.000000
    28  F    0.000000   0.000000  -0.000000  -0.000000   0.000000  -0.000000
    29  Cl   0.000379  -0.002908  -0.000835   0.000254  -0.000534   0.000069
    30  Cl   0.000038   0.029631   0.001085   0.000196  -0.000060  -0.000002
              19         20         21         22         23         24
     1  C   -0.000004  -0.000000  -0.000000   0.000000   0.191788   0.063712
     2  C    0.000033   0.000001   0.000000  -0.000000  -0.023383   0.043608
     3  C    0.000413   0.000023   0.000001  -0.000009   0.012052  -0.023674
     4  C   -0.000225   0.000100  -0.000025   0.000038   0.010877   0.041275
     5  C   -0.000676  -0.000110  -0.000001   0.000023  -0.019744  -0.004947
     6  C   -0.000044  -0.000005   0.000000   0.000002   0.119327   0.185793
     7  N   -0.000053   0.000038   0.000009   0.000028  -0.000298  -0.000531
     8  C   -0.001030   0.001922  -0.001783   0.003373   0.000700   0.000211
     9  N    0.007428   0.000841   0.000532   0.000777  -0.000001  -0.000017
    10  O   -0.000266  -0.000055   0.000008  -0.000056  -0.000005  -0.000049
    11  C   -0.078020  -0.012216   0.027580  -0.007274   0.000005   0.000002
    12  C    0.415731  -0.058974  -0.084512  -0.063467   0.000000  -0.000000
    13  C   -0.032004   0.412971   0.409362   0.411199   0.000000  -0.000000
    14  H    0.000002   0.000000  -0.000000  -0.000000  -0.000004   0.000002
    15  H    0.001020   0.000002  -0.000003   0.000001   0.000000  -0.000000
    16  H   -0.005372  -0.000327  -0.000062   0.002698  -0.000000   0.000000
    17  H    0.003914   0.002699  -0.000057  -0.000338   0.000000  -0.000000
    18  H   -0.033853  -0.004876  -0.003096   0.003962  -0.000000  -0.000000
    19  H    0.511351   0.003960  -0.003066  -0.004869  -0.000000  -0.000000
    20  H    0.003960   0.493018  -0.024130  -0.027808  -0.000000  -0.000000
    21  H   -0.003066  -0.024130   0.491184  -0.024096  -0.000000  -0.000000
    22  H   -0.004869  -0.027808  -0.024096   0.492571   0.000000   0.000000
    23  H   -0.000000  -0.000000  -0.000000   0.000000   0.441948  -0.000120
    24  H   -0.000000  -0.000000  -0.000000   0.000000  -0.000120   0.431068
    25  C   -0.000000  -0.000000  -0.000000   0.000000   0.013430  -0.001407
    26  F   -0.000000  -0.000000  -0.000000   0.000000   0.000309   0.007283
    27  F   -0.000000  -0.000000   0.000000   0.000000   0.000511   0.000032
    28  F   -0.000000   0.000000  -0.000000   0.000000   0.000444  -0.000013
    29  Cl   0.000001   0.000015   0.000000  -0.000002   0.000451  -0.005514
    30  Cl  -0.000005   0.000000  -0.000000  -0.000000  -0.003953   0.000378
              25         26         27         28         29         30
     1  C   -1.640665  -0.058128   0.179363   0.189623  -0.106346  -0.055671
     2  C    0.054153  -0.001939  -0.216119  -0.229415   0.050621  -0.607581
     3  C    0.021603   0.000703   0.028418   0.053425   0.109246  -0.677525
     4  C   -1.013519   0.035224   0.028361   0.047804  -0.327550   0.575664
     5  C   -0.654548   0.090710  -0.009996   0.011687  -0.027104   0.381623
     6  C    0.420418  -0.023786  -0.002165  -0.020903   0.085102   0.089635
     7  N    0.011472  -0.000045   0.000037  -0.000090   0.061308  -0.030528
     8  C   -0.093019   0.000092  -0.000564   0.000600   0.034399   0.058922
     9  N    0.000606  -0.000001  -0.000000  -0.000001   0.000852  -0.004004
    10  O   -0.003638  -0.000006   0.000001  -0.000002  -0.126384   0.006605
    11  C   -0.002664  -0.000002  -0.000004   0.000005   0.015047   0.004709
    12  C    0.000022   0.000000   0.000000  -0.000000   0.000158   0.001342
    13  C   -0.000006  -0.000000  -0.000000   0.000000   0.000379   0.000038
    14  H   -0.000306  -0.000000  -0.000000   0.000000  -0.002908   0.029631
    15  H   -0.000006   0.000000  -0.000000  -0.000000  -0.000835   0.001085
    16  H   -0.000003  -0.000000  -0.000000  -0.000000   0.000254   0.000196
    17  H    0.000002   0.000000  -0.000000   0.000000  -0.000534  -0.000060
    18  H    0.000000   0.000000   0.000000  -0.000000   0.000069  -0.000002
    19  H   -0.000000  -0.000000  -0.000000  -0.000000   0.000001  -0.000005
    20  H   -0.000000  -0.000000  -0.000000   0.000000   0.000015   0.000000
    21  H   -0.000000  -0.000000   0.000000  -0.000000   0.000000  -0.000000
    22  H    0.000000   0.000000   0.000000   0.000000  -0.000002  -0.000000
    23  H    0.013430   0.000309   0.000511   0.000444   0.000451  -0.003953
    24  H   -0.001407   0.007283   0.000032  -0.000013  -0.005514   0.000378
    25  C    7.180666   0.079643   0.128411   0.084949   0.008070  -0.053008
    26  F    0.079643   9.269918  -0.037336  -0.037031  -0.000731  -0.000068
    27  F    0.128411  -0.037336   9.212707  -0.051300  -0.000222  -0.000641
    28  F    0.084949  -0.037031  -0.051300   9.207605  -0.000288   0.000594
    29  Cl   0.008070  -0.000731  -0.000222  -0.000288  16.900166  -0.007987
    30  Cl  -0.053008  -0.000068  -0.000641   0.000594  -0.007987  17.060802
 Mulliken charges:
               1
     1  C   -1.603352
     2  C    0.560140
     3  C   -0.153623
     4  C    0.176099
     5  C   -0.442826
     6  C    0.050273
     7  N   -0.685056
     8  C    0.367183
     9  N   -0.631045
    10  O   -0.552714
    11  C   -0.104463
    12  C   -0.347605
    13  C   -0.681931
    14  H    0.416350
    15  H    0.400516
    16  H    0.228844
    17  H    0.227386
    18  H    0.215874
    19  H    0.215635
    20  H    0.212910
    21  H    0.212154
    22  H    0.213248
    23  H    0.255665
    24  H    0.262908
    25  C    1.459344
    26  F   -0.324807
    27  F   -0.259493
    28  F   -0.257691
    29  Cl   0.340268
    30  Cl   0.229809
 Sum of Mulliken charges =  -0.00000
 Mulliken charges with hydrogens summed into heavy atoms:
               1
     1  C   -1.603352
     2  C    0.815806
     3  C   -0.153623
     4  C    0.176099
     5  C   -0.442826
     6  C    0.313181
     7  N   -0.268706
     8  C    0.367183
     9  N   -0.230528
    10  O   -0.552714
    11  C    0.351767
    12  C    0.083905
    13  C   -0.043619
    25  C    1.459344
    26  F   -0.324807
    27  F   -0.259493
    28  F   -0.257691
    29  Cl   0.340268
    30  Cl   0.229809
 Electronic spatial extent (au):  <R**2>=           9052.7680
 Charge=             -0.0000 electrons
 Dipole moment (field-independent basis, Debye):
    X=             -4.0258    Y=              3.1401    Z=             -2.1614  Tot=              5.5443
 Quadrupole moment (field-independent basis, Debye-Ang):
   XX=           -115.1476   YY=           -122.8272   ZZ=           -127.6613
   XY=             -6.0710   XZ=              4.4184   YZ=             -0.4712
 Traceless Quadrupole moment (field-independent basis, Debye-Ang):
   XX=              6.7311   YY=             -0.9485   ZZ=             -5.7826
   XY=             -6.0710   XZ=              4.4184   YZ=             -0.4712
 Octapole moment (field-independent basis, Debye-Ang**2):
  XXX=           -109.7919  YYY=             -2.1230  ZZZ=              4.1622  XYY=             23.2862
  XXY=             22.3399  XXZ=            -10.9462  XZZ=             15.5945  YZZ=              1.6878
  YYZ=             -4.2211  XYZ=              2.2483
 Hexadecapole moment (field-independent basis, Debye-Ang**3):
 XXXX=          -9114.1867 YYYY=          -1672.1166 ZZZZ=           -323.0838 XXXY=            -44.4181
 XXXZ=             40.8917 YYYX=            -28.7018 YYYZ=              0.6357 ZZZX=             18.7483
 ZZZY=             -4.5112 XXYY=          -1816.7891 XXZZ=          -1639.4237 YYZZ=           -348.4775
 XXYZ=              3.5997 YYXZ=             31.8730 ZZXY=            -23.3573
 N-N= 1.697266672310D+03 E-N=-7.710815828382D+03  KE= 1.819469511915D+03
 Calling FoFJK, ICntrl=      2127 FMM=F ISym2X=0 I1Cent= 0 IOpClX= 0 NMat=1 NMatS=1 NMatT=0.
 ***** Axes restored to original set *****
 -------------------------------------------------------------------
 Center     Atomic                   Forces (Hartrees/Bohr)
 Number     Number              X              Y              Z
 -------------------------------------------------------------------
      1        6           0.016085660   -0.001031495    0.001495305
      2        6           0.000550032   -0.001727254   -0.001092399
      3        6          -0.004813910    0.010332826   -0.002300501
      4        6           0.024587932   -0.007275693    0.007016003
      5        6          -0.000704636   -0.002929073   -0.001577360
      6        6          -0.005507507   -0.004291013    0.003824648
      7        7          -0.026360431   -0.023125040   -0.019963823
      8        6           0.017079910    0.036390440    0.020258967
      9        7          -0.012701684   -0.036405752   -0.012403247
     10        8          -0.000241045    0.002764669    0.005962904
     11        6           0.005322141    0.005757026    0.003362760
     12        6          -0.005261919   -0.004562127   -0.003059628
     13        6           0.005628841    0.000362391    0.002636049
     14        1          -0.005794767    0.015333104   -0.001101467
     15        1           0.005739437    0.016161614    0.003440067
     16        1           0.002360051   -0.001751934   -0.010571014
     17        1          -0.006100912   -0.004102687    0.008292481
     18        1          -0.004157521    0.002326937    0.008067877
     19        1           0.003048528    0.004230706   -0.007750910
     20        1          -0.003510245   -0.005979381    0.008255400
     21        1          -0.004679157    0.010243729   -0.000885100
     22        1           0.004361407   -0.003909797   -0.009044907
     23        1          -0.000819432   -0.001605167    0.000850615
     24        1           0.000719219    0.000890307   -0.000210183
     25        6          -0.002322759    0.005124689   -0.002200724
     26        9          -0.013845866   -0.034792605    0.016862203
     27        9           0.008492951    0.027113811    0.023881221
     28        9           0.012053276   -0.003152038   -0.035322191
     29       17          -0.015324459   -0.010695861   -0.001268671
     30       17           0.006116865    0.010304668   -0.005454375
 -------------------------------------------------------------------
 Cartesian Forces:  Max     0.036405752 RMS     0.012054693

 GradGradGradGradGradGradGradGradGradGradGradGradGradGradGradGradGradGrad
 Berny optimization.
 FormGI is forming the generalized inverse of G from B-inverse, IUseBI=4.
 GSVD:  received Info=                   1 from GESDD.
 Internal  Forces:  Max     0.040545762 RMS     0.009069504
 Search for a local minimum.
 Step number   1 out of a maximum of  157
 All quantities printed in internal units (Hartrees-Bohrs-Radians)
 Mixed Optimization -- RFO/linear search
 Second derivative matrix not updated -- first step.
 ITU=  0
     Eigenvalues ---    0.00329   0.00424   0.00648   0.00997   0.01190
     Eigenvalues ---    0.01472   0.01495   0.01632   0.01677   0.01840
     Eigenvalues ---    0.01907   0.01997   0.02046   0.02076   0.02107
     Eigenvalues ---    0.02128   0.02133   0.02165   0.02184   0.03755
     Eigenvalues ---    0.04438   0.04933   0.05553   0.05673   0.05783
     Eigenvalues ---    0.08034   0.09179   0.11011   0.11435   0.11976
     Eigenvalues ---    0.12668   0.15962   0.15998   0.16000   0.16000
     Eigenvalues ---    0.16000   0.16000   0.16000   0.21964   0.22000
     Eigenvalues ---    0.22003   0.22014   0.23458   0.23486   0.24928
     Eigenvalues ---    0.24980   0.24983   0.24992   0.24995   0.24998
     Eigenvalues ---    0.25000   0.25000   0.25000   0.25000   0.29148
     Eigenvalues ---    0.29211   0.29314   0.29807   0.31459   0.32336
     Eigenvalues ---    0.32339   0.32405   0.32406   0.32504   0.32507
     Eigenvalues ---    0.32559   0.35546   0.35653   0.37913   0.39669
     Eigenvalues ---    0.39868   0.40878   0.42437   0.42671   0.43547
     Eigenvalues ---    0.44647   0.45660   0.45983   0.48316   0.48532
     Eigenvalues ---    0.48545   0.51620   0.52392   0.94695
 RFO step:  Lambda=-3.96567646D-02 EMin= 3.29355040D-03
 Linear search not attempted -- first point.
 Iteration  1 RMS(Cart)=  0.21529779 RMS(Int)=  0.01060864
 Iteration  2 RMS(Cart)=  0.01930602 RMS(Int)=  0.00031167
 Iteration  3 RMS(Cart)=  0.00014727 RMS(Int)=  0.00030744
 Iteration  4 RMS(Cart)=  0.00000001 RMS(Int)=  0.00030744
 Variable       Old X    -DE/DX   Delta X   Delta X   Delta X     New X
                                 (Linear)    (Quad)   (Total)
    R1        2.64034  -0.00942   0.00000  -0.01867  -0.01871   2.62163
    R2        2.64715  -0.01225   0.00000  -0.02457  -0.02458   2.62256
    R3        2.85145  -0.00721   0.00000  -0.02036  -0.02036   2.83108
    R4        2.63978  -0.01324   0.00000  -0.02647  -0.02651   2.61327
    R5        2.04798   0.00154   0.00000   0.00390   0.00390   2.05189
    R6        2.67602  -0.01189   0.00000  -0.02550  -0.02550   2.65052
    R7        3.33052  -0.01230   0.00000  -0.03697  -0.03697   3.29355
    R8        2.69702  -0.01410   0.00000  -0.03126  -0.03121   2.66582
    R9        2.71733  -0.02867   0.00000  -0.06542  -0.06542   2.65192
   R10        2.64793  -0.00837   0.00000  -0.01690  -0.01686   2.63107
   R11        3.33264  -0.01754   0.00000  -0.05288  -0.05288   3.27977
   R12        2.04628   0.00094   0.00000   0.00236   0.00236   2.04865
   R13        2.58265   0.02047   0.00000   0.03683   0.03683   2.61948
   R14        1.94778  -0.01484   0.00000  -0.03183  -0.03183   1.91595
   R15        2.57526   0.00097   0.00000   0.00172   0.00172   2.57698
   R16        2.30842   0.00377   0.00000   0.00382   0.00382   2.31223
   R17        2.74493  -0.00193   0.00000  -0.00462  -0.00462   2.74031
   R18        1.95071  -0.01701   0.00000  -0.03667  -0.03667   1.91404
   R19        2.89696  -0.00526   0.00000  -0.01589  -0.01589   2.88107
   R20        2.10229  -0.01038   0.00000  -0.02858  -0.02858   2.07370
   R21        2.10234  -0.01051   0.00000  -0.02894  -0.02894   2.07340
   R22        2.88349   0.00216   0.00000   0.00640   0.00640   2.88989
   R23        2.10110  -0.00891   0.00000  -0.02451  -0.02451   2.07659
   R24        2.10108  -0.00890   0.00000  -0.02446  -0.02446   2.07661
   R25        2.09931  -0.01051   0.00000  -0.02881  -0.02881   2.07050
   R26        2.09832  -0.01092   0.00000  -0.02989  -0.02989   2.06843
   R27        2.09926  -0.01050   0.00000  -0.02879  -0.02879   2.07048
   R28        2.61604  -0.04055   0.00000  -0.07755  -0.07755   2.53848
   R29        2.61376  -0.03540   0.00000  -0.06743  -0.06743   2.54633
   R30        2.61363  -0.03575   0.00000  -0.06808  -0.06808   2.54555
    A1        2.07579   0.00478   0.00000   0.01788   0.01784   2.09364
    A2        2.08204  -0.00285   0.00000  -0.01059  -0.01061   2.07143
    A3        2.12528  -0.00194   0.00000  -0.00744  -0.00746   2.11782
    A4        2.11050  -0.00858   0.00000  -0.03195  -0.03199   2.07851
    A5        2.08930   0.00558   0.00000   0.02244   0.02245   2.11175
    A6        2.08338   0.00300   0.00000   0.00952   0.00953   2.09291
    A7        2.11024   0.00870   0.00000   0.03038   0.03038   2.14062
    A8        2.04637   0.00340   0.00000   0.01156   0.01155   2.05792
    A9        2.12633  -0.01211   0.00000  -0.04203  -0.04203   2.08430
   A10        2.05823  -0.00407   0.00000  -0.01412  -0.01408   2.04415
   A11        2.06048  -0.01216   0.00000  -0.04230  -0.04240   2.01808
   A12        2.16392   0.01619   0.00000   0.05566   0.05546   2.21938
   A13        2.09553   0.00119   0.00000   0.00360   0.00312   2.09865
   A14        2.17755   0.00028   0.00000  -0.00040  -0.00107   2.17648
   A15        2.00782  -0.00173   0.00000  -0.00737  -0.00812   1.99970
   A16        2.11556  -0.00208   0.00000  -0.00672  -0.00671   2.10885
   A17        2.09441   0.00168   0.00000   0.00647   0.00636   2.10077
   A18        2.07311   0.00038   0.00000  -0.00003  -0.00013   2.07298
   A19        2.21034   0.00819   0.00000   0.03018   0.02923   2.23957
   A20        2.03999  -0.01031   0.00000  -0.04881  -0.04966   1.99032
   A21        2.02863   0.00174   0.00000   0.01145   0.01037   2.03900
   A22        2.08775  -0.02995   0.00000  -0.10367  -0.10377   1.98399
   A23        2.10971   0.01668   0.00000   0.05734   0.05724   2.16695
   A24        2.08459   0.01319   0.00000   0.04529   0.04520   2.12979
   A25        2.12647  -0.00675   0.00000  -0.02600  -0.02600   2.10046
   A26        2.07805   0.00721   0.00000   0.03218   0.03218   2.11023
   A27        2.07866  -0.00045   0.00000  -0.00619  -0.00619   2.07248
   A28        1.93725  -0.00410   0.00000  -0.01320  -0.01314   1.92411
   A29        1.90658   0.00067   0.00000   0.00056   0.00061   1.90719
   A30        1.90577   0.00081   0.00000   0.00162   0.00167   1.90744
   A31        1.90602   0.00272   0.00000   0.01537   0.01535   1.92137
   A32        1.90551   0.00263   0.00000   0.01501   0.01499   1.92050
   A33        1.90239  -0.00274   0.00000  -0.01964  -0.01973   1.88267
   A34        1.94148  -0.00090   0.00000  -0.00070  -0.00070   1.94078
   A35        1.91050  -0.00011   0.00000  -0.00207  -0.00209   1.90841
   A36        1.91073  -0.00012   0.00000  -0.00232  -0.00234   1.90839
   A37        1.90084   0.00135   0.00000   0.01016   0.01016   1.91100
   A38        1.90133   0.00132   0.00000   0.00976   0.00976   1.91109
   A39        1.89843  -0.00156   0.00000  -0.01513  -0.01518   1.88324
   A40        1.92572   0.00216   0.00000   0.01024   0.01017   1.93589
   A41        1.91257   0.00346   0.00000   0.01850   0.01838   1.93095
   A42        1.92586   0.00218   0.00000   0.01033   0.01026   1.93612
   A43        1.89663  -0.00258   0.00000  -0.01174  -0.01186   1.88477
   A44        1.90574  -0.00280   0.00000  -0.01628  -0.01630   1.88944
   A45        1.89683  -0.00259   0.00000  -0.01183  -0.01196   1.88487
   A46        1.95244   0.00617   0.00000   0.02258   0.02190   1.97435
   A47        1.91024   0.01493   0.00000   0.05079   0.04989   1.96013
   A48        1.90988   0.01501   0.00000   0.05130   0.05039   1.96026
   A49        1.89399  -0.01072   0.00000  -0.03597  -0.03655   1.85743
   A50        1.89384  -0.01058   0.00000  -0.03504  -0.03566   1.85817
   A51        1.90279  -0.01588   0.00000  -0.05743  -0.05847   1.84432
    D1        0.00876   0.00097   0.00000   0.01643   0.01653   0.02529
    D2       -3.13208   0.00057   0.00000   0.01088   0.01086  -3.12121
    D3        3.13745   0.00028   0.00000   0.00362   0.00361   3.14106
    D4       -0.00339  -0.00012   0.00000  -0.00193  -0.00206  -0.00545
    D5       -0.01361  -0.00047   0.00000  -0.00925  -0.00930  -0.02291
    D6        3.11228  -0.00179   0.00000  -0.03041  -0.03066   3.08162
    D7        3.14122   0.00024   0.00000   0.00391   0.00400  -3.13797
    D8       -0.01608  -0.00107   0.00000  -0.01725  -0.01736  -0.03344
    D9       -3.13636   0.00041   0.00000   0.00719   0.00716  -3.12920
   D10       -1.03660   0.00095   0.00000   0.01067   0.01045  -1.02615
   D11        1.04750  -0.00035   0.00000   0.00224   0.00237   1.04987
   D12       -0.00805  -0.00025   0.00000  -0.00581  -0.00576  -0.01380
   D13        2.09171   0.00029   0.00000  -0.00232  -0.00246   2.08924
   D14       -2.10737  -0.00101   0.00000  -0.01075  -0.01055  -2.11792
   D15        0.01546   0.00010   0.00000   0.00241   0.00236   0.01783
   D16        3.13374  -0.00030   0.00000  -0.00227  -0.00253   3.13121
   D17       -3.12688   0.00050   0.00000   0.00794   0.00798  -3.11891
   D18       -0.00860   0.00010   0.00000   0.00327   0.00308  -0.00552
   D19       -0.03390  -0.00150   0.00000  -0.02725  -0.02708  -0.06099
   D20       -3.14118  -0.00052   0.00000  -0.00463  -0.00546   3.13654
   D21        3.13208  -0.00131   0.00000  -0.02314  -0.02286   3.10922
   D22        0.02480  -0.00032   0.00000  -0.00052  -0.00124   0.02356
   D23        0.02889   0.00183   0.00000   0.03357   0.03337   0.06226
   D24       -3.03643   0.00603   0.00000   0.10335   0.10335  -2.93308
   D25        3.13397   0.00015   0.00000   0.00731   0.00660   3.14057
   D26        0.06864   0.00434   0.00000   0.07708   0.07658   0.14522
   D27       -2.50567   0.01013   0.00000   0.19670   0.19597  -2.30970
   D28        0.53301   0.00547   0.00000   0.10971   0.11028   0.64329
   D29        0.67248   0.01165   0.00000   0.22245   0.22188   0.89436
   D30       -2.57202   0.00700   0.00000   0.13546   0.13619  -2.43583
   D31       -0.00556  -0.00104   0.00000  -0.01642  -0.01675  -0.02231
   D32       -3.13164   0.00024   0.00000   0.00442   0.00422  -3.12743
   D33        3.06688  -0.00477   0.00000  -0.07944  -0.07973   2.98715
   D34       -0.05920  -0.00349   0.00000  -0.05859  -0.05876  -0.11796
   D35       -3.13691   0.00137   0.00000   0.02112   0.02049  -3.11642
   D36        0.05594   0.00281   0.00000   0.04377   0.04327   0.09921
   D37        0.10701   0.00662   0.00000   0.11073   0.11123   0.21824
   D38       -2.98332   0.00806   0.00000   0.13338   0.13401  -2.84931
   D39       -3.11876   0.00123   0.00000   0.02034   0.02025  -3.09851
   D40        0.02672   0.00139   0.00000   0.02308   0.02303   0.04976
   D41       -0.02769  -0.00006   0.00000  -0.00154  -0.00150  -0.02918
   D42        3.11780   0.00010   0.00000   0.00120   0.00129   3.11908
   D43       -3.13777   0.00006   0.00000   0.00086   0.00084  -3.13693
   D44        1.04273  -0.00118   0.00000  -0.01029  -0.01031   1.03242
   D45       -1.03625   0.00127   0.00000   0.01225   0.01224  -1.02401
   D46       -0.00007  -0.00008   0.00000  -0.00181  -0.00179  -0.00186
   D47       -2.10276  -0.00132   0.00000  -0.01295  -0.01294  -2.11570
   D48        2.10145   0.00113   0.00000   0.00959   0.00960   2.11105
   D49        3.13998   0.00006   0.00000   0.00068   0.00068   3.14066
   D50        1.03850  -0.00098   0.00000  -0.01019  -0.01018   1.02832
   D51       -1.04096   0.00105   0.00000   0.01090   0.01089  -1.03007
   D52       -1.04019   0.00008   0.00000   0.00306   0.00302  -1.03717
   D53        3.14151  -0.00096   0.00000  -0.00782  -0.00784   3.13367
   D54        1.06206   0.00107   0.00000   0.01328   0.01323   1.07528
   D55        1.03830  -0.00007   0.00000  -0.00278  -0.00274   1.03556
   D56       -1.06319  -0.00112   0.00000  -0.01365  -0.01360  -1.07679
   D57        3.14054   0.00092   0.00000   0.00744   0.00747  -3.13518
   D58       -1.05353   0.00032   0.00000   0.00322   0.00325  -1.05028
   D59       -3.14120  -0.00002   0.00000  -0.00028  -0.00028  -3.14148
   D60        1.05397  -0.00035   0.00000  -0.00372  -0.00375   1.05022
   D61        1.05365   0.00051   0.00000   0.00687   0.00690   1.06055
   D62       -1.03403   0.00017   0.00000   0.00338   0.00337  -1.03065
   D63       -3.12204  -0.00016   0.00000  -0.00007  -0.00010  -3.12214
   D64        3.12188   0.00017   0.00000   0.00013   0.00016   3.12204
   D65        1.03420  -0.00017   0.00000  -0.00337  -0.00336   1.03084
   D66       -1.05381  -0.00050   0.00000  -0.00681  -0.00684  -1.06064
         Item               Value     Threshold  Converged?
 Maximum Force            0.040546     0.000450     NO 
 RMS     Force            0.009070     0.000300     NO 
 Maximum Displacement     0.881236     0.001800     NO 
 RMS     Displacement     0.213013     0.001200     NO 
 Predicted change in Energy=-2.512471D-02
 GradGradGradGradGradGradGradGradGradGradGradGradGradGradGradGradGradGrad

                          Input orientation:                          
 ---------------------------------------------------------------------
 Center     Atomic      Atomic             Coordinates (Angstroms)
 Number     Number       Type             X           Y           Z
 ---------------------------------------------------------------------
      1          6           0       -4.187566    3.473802   -1.088584
      2          6           0       -4.173923    2.290368   -0.364764
      3          6           0       -2.959070    1.736659   -0.004343
      4          6           0       -1.730821    2.334285   -0.322953
      5          6           0       -1.770230    3.507524   -1.105258
      6          6           0       -2.992101    4.068806   -1.466506
      7          7           0       -0.589255    1.649051    0.120478
      8          6           0        0.514309    2.158579    0.786806
      9          7           0        1.473276    1.225732    1.051013
     10          8           0        0.605658    3.313003    1.181920
     11          6           0        2.666300    1.590491    1.790242
     12          6           0        3.579990    0.380206    1.947663
     13          6           0        4.847123    0.741190    2.724013
     14          1           0       -0.669163    0.639441    0.073018
     15          1           0        1.371110    0.269836    0.732069
     16          1           0        2.377745    1.975671    2.776430
     17          1           0        3.192483    2.391856    1.256594
     18          1           0        3.854646   -0.000215    0.953990
     19          1           0        3.040034   -0.417052    2.477193
     20          1           0        5.414663    1.521779    2.205307
     21          1           0        5.496049   -0.133694    2.831497
     22          1           0        4.600895    1.105331    3.727617
     23          1           0       -5.099104    1.800510   -0.076549
     24          1           0       -2.994729    4.963097   -2.079289
     25          6           0       -5.508697    4.065288   -1.474839
     26          9           0       -5.391463    5.199907   -2.184327
     27          9           0       -6.247172    3.222568   -2.223251
     28          9           0       -6.269189    4.361885   -0.403291
     29         17           0       -0.388705    4.239678   -1.858630
     30         17           0       -2.978017    0.258039    0.918113
 ---------------------------------------------------------------------
                    Distance matrix (angstroms):
                    1          2          3          4          5
     1  C    0.000000
     2  C    1.387305   0.000000
     3  C    2.387980   1.382883   0.000000
     4  C    2.814300   2.443855   1.402593   0.000000
     5  C    2.417628   2.794197   2.400274   1.410689   0.000000
     6  C    1.387801   2.402786   2.752803   2.430454   1.392303
     7  N    4.211815   3.673771   2.374716   1.403334   2.520129
     8  C    5.230156   4.829390   3.587241   2.510587   3.258631
     9  N    6.455759   5.918507   4.584814   3.658265   4.514023
    10  O    5.306227   5.126637   4.074233   2.946466   3.303614
    11  C    7.668767   7.205729   5.906496   4.934926   5.633981
    12  C    8.895170   8.313796   6.957701   6.097445   6.908350
    13  C   10.179817   9.660216   8.328958   7.422351   8.130516
    14  H    4.664984   3.898789   2.540383   2.038726   3.290377
    15  H    6.669262   6.002748   4.630803   3.872595   4.870976
    16  H    7.764408   7.272585   6.022576   5.158981   5.883856
    17  H    7.818925   7.543410   6.313545   5.170803   5.608171
    18  H    8.995448   8.452444   7.096610   6.186915   6.941467
    19  H    8.949397   8.212674   6.840010   6.178327   7.167628
    20  H   10.337451   9.956755   8.663032   7.623004   8.156329
    21  H   11.052306  10.469027   9.112039   8.262513   9.030799
    22  H   10.297693   9.754452   8.454536   7.616303   8.349757
    23  H    2.157549   1.085812   2.142203   3.419205   3.879888
    24  H    2.149967   3.387266   3.836219   3.404825   2.137014
    25  C    1.498144   2.482786   3.753061   4.312257   3.797871
    26  F    2.372648   3.641240   4.760562   5.007674   4.140275
    27  F    2.364861   2.936211   4.235929   4.979720   4.623215
    28  F    2.364629   2.946660   4.243567   4.971358   4.632852
    29  Cl   3.951060   4.512130   4.038597   2.791075   1.735578
    30  Cl   3.978815   2.684460   1.742871   2.721496   4.013967
                    6          7          8          9         10
     6  C    0.000000
     7  N    3.761303   0.000000
     8  C    4.584899   1.386170   0.000000
     9  N    5.861788   2.301984   1.363681   0.000000
    10  O    4.530924   2.307209   1.223582   2.264199   0.000000
    11  C    6.983263   3.659260   2.441449   1.450109   2.753788
    12  C    8.273736   4.725588   3.729423   2.440725   4.246682
    13  C    9.491413   6.095640   4.953286   3.796914   5.194449
    14  H    4.418905   1.013879   2.053749   2.426985   3.162715
    15  H    6.188983   2.473724   2.074718   1.012867   3.170038
    16  H    7.156742   3.995479   2.732114   2.087471   2.733351
    17  H    6.962508   4.017968   2.729054   2.087530   2.746953
    18  H    8.324283   4.812804   3.980728   2.680165   4.645997
    19  H    8.488954   4.795272   3.983788   2.680944   4.638666
    20  H    9.520674   6.356866   5.141121   4.117592   5.232812
    21  H   10.401083   6.896284   5.852607   4.604440   6.206186
    22  H    9.665127   6.343875   5.143723   4.118338   5.226500
    23  H    3.393613   4.516690   5.690694   6.693126   6.034541
    24  H    1.084097   4.648459   5.328524   6.612847   5.130408
    25  C    2.516612   5.708252   6.710229   7.949274   6.708922
    26  F    2.748016   6.401710   7.277049   8.566570   7.131443
    27  F    3.447357   6.323056   7.477309   8.620527   7.652755
    28  F    3.457691   6.316284   7.230956   8.479163   7.132781
    29  Cl   2.638300   3.266257   3.484931   4.584416   3.330530
    30  Cl   4.495393   2.877034   3.978145   4.557204   4.716474
                   11         12         13         14         15
    11  C    0.000000
    12  C    1.524598   0.000000
    13  C    2.519768   1.529266   0.000000
    14  H    3.870229   4.651538   6.121074   0.000000
    15  H    2.131051   2.523688   4.033942   2.175700   0.000000
    16  H    1.097357   2.162812   2.761253   4.286910   2.846506
    17  H    1.097194   2.162053   2.759684   4.402741   2.845258
    18  H    2.154491   1.098883   2.160480   4.652970   2.508013
    19  H    2.154485   1.098897   2.160559   4.544709   2.510494
    20  H    2.780377   2.176142   1.095663   6.506775   4.481976
    21  H    3.473399   2.171759   1.094568   6.798293   4.646026
    22  H    2.780550   2.176301   1.095649   6.430137   4.483622
    23  H    7.989400   9.024487  10.387143   4.582011   6.697798
    24  H    7.641662   8.969178  10.118837   5.360474   6.999355
    25  C    9.144176  10.387376  11.658602   6.128081   8.161350
    26  F    9.682594  10.990442  12.198385   6.942158   8.862469
    27  F    9.910691  11.047564  12.398228   6.561980   8.688542
    28  F    9.609120  10.880582  12.102143   6.741197   8.741171
    29  Cl   5.446606   6.718179   7.788064   4.095318   5.056512
    30  Cl   5.864671   6.639455   8.045343   2.488063   4.353121
                   16         17         18         19         20
    16  H    0.000000
    17  H    1.773953   0.000000
    18  H    3.067026   2.500407   0.000000
    19  H    2.500658   3.066442   1.776934   0.000000
    20  H    3.123310   2.568107   2.513148   3.077637   0.000000
    21  H    3.765139   3.763661   2.497410   2.497565   1.771816
    22  H    2.569950   3.121654   3.077682   2.513463   1.775689
[...]
 0.00001517,-0.00000060,-0.00000485,-0.00000311,0.00000344,-0.00000451,
 -0.00000720,0.00000096,-0.00000009,0.00000180,-0.00000208,-0.00000198,
 0.00000040,-0.00000052,0.00000116,-0.00000095,0.00000082,0.00000060,0.
 00000044,-0.00000132,0.00000018,0.00000003,0.00000026,-0.00000223,-0.0
 0008053,0.00041192,0.00015967,-0.01259279,-0.15418361,0.11950253,-0.18
 699410,0.05437238,-0.01974857,0.00713078,0.00912196,-0.00628756,0.0074
 0564,0.00055178,0.00089111,-0.00629469,0.00017681,0.00030982,-0.004503
 70,-0.00439617,0.00284777,-0.02342079,0.01091355,-0.00379297,0.0075347
 0,-0.00163324,0.00242669,-0.00673950,-0.00208875,-0.00222538,0.0026861
 0,-0.00107296,0.00139654,0.00163063,0.00119367,0.00115009,-0.00079664,
 -0.00040002,-0.00082479,0.00005705,0.00029155,0.00006591,0.00003030,-0
 .00018316,-0.00003658,0.00074549,0.00028411,-0.00067090,-0.00014470,0.
 00041922,-0.00004455,0.00001552,0.00005462,0.00001912,0.00023568,0.000
 11683,0.00009379,0.00000196,-0.00002662,-0.00000484,-0.00002556,-0.000
 01872,-0.00001278,-0.00000941,0.00004448,-0.00001089,0.00012165,-0.000
 04532,0.00006581,-0.00002557,0.00004560,0.00001435,0.00017309,-0.00298
 659,0.00128134,-0.00009818,0.00009531,-0.00025553,0.60560210,0.0572504
 9,-0.11924514,0.02434008,0.02383988,-0.01452585,0.00497425,-0.00116633
 ,-0.00386764,0.00507695,0.00089037,-0.00321573,0.00178103,-0.00267768,
 0.00366096,0.00269002,-0.00151045,0.01349389,-0.00705684,-0.00440670,0
 .00028237,-0.00177204,0.00377219,0.00181319,0.00153381,-0.00147264,0.0
 0037422,-0.00077774,-0.00094902,-0.00116027,-0.00081078,0.00047218,0.0
 0027739,0.00044265,-0.00004368,-0.00014637,-0.00004262,-0.00001032,0.0
 0010393,0.00002108,-0.00029854,-0.00011616,0.00046452,0.00012009,-0.00
 018612,0.00001188,-0.00000986,-0.00001898,-0.00002336,-0.00015167,-0.0
 0007037,-0.00003556,0.00000730,0.00001037,-0.00000860,0.00000989,-0.00
 000265,0.00002061,-0.00000654,-0.00002676,0.00001368,-0.00006054,0.000
 01702,-0.00003474,0.00001424,-0.00002016,-0.00001822,0.00016419,-0.001
 35547,0.00004388,-0.00369291,-0.00174253,-0.00039219,-0.03089236,0.584
 19508,-0.02116147,0.02481729,-0.07981229,-0.01456675,0.00573734,-0.003
 80874,-0.00002678,0.00590251,0.00275402,0.00006983,0.00139479,-0.00144
 973,0.00314209,0.00207352,0.00497502,0.00344791,-0.00816750,0.00614504
 ,0.00157206,-0.00038108,-0.00024653,-0.00140798,0.00015074,-0.00000174
 ,0.00063082,-0.00035671,0.00024821,0.00054518,-0.00010306,-0.00013643,
 -0.00020349,-0.00008139,-0.00013111,-0.00000206,0.00006773,0.00002582,
 0.00000235,-0.00003727,0.00000253,0.00011565,0.00009232,-0.00003859,-0
 .00002732,0.00008556,0.00003001,-0.00000170,0.00000722,-0.00001097,0.0
 0005965,0.00003665,0.00001583,0.00001073,-0.00001958,-0.00001922,-0.00
 000270,0.00000720,-0.00000141,0.00000029,0.00001780,-0.00000505,0.0000
 2740,-0.00001466,0.00001775,-0.00000646,0.00000377,-0.00001021,-0.0003
 5323,0.00033223,-0.00161022,0.00183947,-0.00080625,-0.00274445,0.00778
 818,-0.03114921,0.54218882,0.00772873,0.02503643,-0.01394355,-0.004743
 16,0.00058998,0.00037189,-0.00020857,0.00050098,-0.00040404,0.00054416
 ,0.00016326,-0.00012557,0.00175719,0.00084988,-0.00064955,-0.00351155,
 0.00059713,0.00013692,-0.00082993,0.00024481,-0.00038101,0.00095691,0.
 00016342,0.00041834,-0.00043584,0.00019249,-0.00023116,-0.00025121,-0.
 00009426,-0.00019609,0.00013601,0.00006455,0.00013864,-0.00000707,-0.0
 0004687,-0.00001103,-0.00000509,0.00003019,0.00000713,-0.00007430,-0.0
 0002769,-0.00000486,0.00002093,-0.00007003,0.00001193,-0.00000076,-0.0
 0000955,-0.00000299,-0.00003421,-0.00001956,-0.00001437,-0.00000063,0.
 00000398,0.00000065,0.00000426,0.00000377,0.00000184,0.00000220,-0.000
 00781,0.00000184,-0.00002114,0.00000862,-0.00001131,0.00000464,-0.0000
 0824,-0.00000251,0.00008976,0.00029551,-0.00016051,-0.00095261,0.00249
 480,-0.00138928,-0.08244511,-0.01189418,0.00775237,0.09340460,-0.00419
 679,-0.03213255,0.02336380,0.00774309,-0.00042967,0.00039659,-0.000634
 24,-0.00027263,0.00019405,-0.00096096,0.00071214,-0.00036851,-0.000364
 82,-0.00059385,0.00027814,-0.00332411,-0.00141401,0.00117779,0.0018702
 0,0.00001797,0.00050146,-0.00163549,-0.00074913,-0.00066772,0.00066166
 ,-0.00015856,0.00033368,0.00044652,0.00050073,0.00028985,-0.00022473,-
 0.00012990,-0.00018521,0.00001677,0.00006338,0.00002329,0.00000255,-0.
 00004503,-0.00000808,0.00001902,0.00003305,-0.00011567,-0.00006147,0.0
 0007105,0.00000984,0.00000335,0.00000685,0.00000836,0.00007192,0.00003
 584,0.00001357,-0.00000166,-0.00000685,0.00000085,-0.00000356,0.000005
 51,-0.00001110,0.00000484,0.00001432,-0.00000722,0.00002686,-0.0000084
 7,0.00001613,-0.00000675,0.00000753,0.00000624,-0.00024368,0.00055738,
 -0.00039606,0.00210001,-0.00009259,-0.00045836,-0.00315567,-0.24445532
 ,0.09682189,0.05143841,0.33215214,0.00249222,0.02085960,-0.00303831,-0
 .00375485,0.00119472,0.00141176,0.00036876,-0.00017322,-0.00049023,0.0
 0051916,-0.00041565,0.00022098,0.00006022,0.00028529,-0.00002132,0.002
 20127,0.00075160,-0.00072264,-0.00100223,-0.00002659,-0.00020911,0.000
 80992,0.00026726,0.00023026,-0.00034930,0.00011292,-0.00015501,-0.0002
 4363,-0.00016508,-0.00006757,0.00011494,0.00006212,0.00008553,-0.00000
 531,-0.00003364,-0.00001397,-0.00000122,0.00002265,0.00000188,0.000009
 33,-0.00003136,0.00003574,0.00002658,-0.00003733,-0.00001208,0.0000002
 4,-0.00000410,-0.00000033,-0.00003740,-0.00001960,-0.00000802,-0.00000
 157,0.00000655,0.00000386,0.00000231,-0.00000434,0.00000483,-0.0000021
 4,-0.00000859,0.00000339,-0.00001418,0.00000542,-0.00000877,0.00000334
 ,-0.00000301,0.00000024,0.00013253,-0.00042049,0.00014503,-0.00111776,
 -0.00050236,0.00002173,0.00279227,0.09752217,-0.12766252,-0.03050403,-
 0.14688159,0.16342960,-0.03365089,-0.02116974,-0.02803044,-0.00124432,
 -0.00194692,0.00171646,-0.00121908,-0.00058163,0.00136842,0.00142178,-
 0.00129125,0.00044166,0.00014651,0.00263482,0.00117168,0.00007291,0.00
 307212,-0.00373103,-0.00272200,0.00069072,-0.00100983,0.00244909,0.000
 57289,0.00070327,-0.00100818,0.00045626,-0.00051777,-0.00062664,-0.000
 30346,-0.00036544,0.00029115,0.00014065,0.00030781,-0.00001794,-0.0001
 1153,-0.00002497,-0.00001115,0.00006879,0.00001067,-0.00029941,-0.0001
 2041,0.00022837,0.00004345,-0.00016557,0.00001844,-0.00000383,-0.00002
 125,-0.00000340,-0.00008541,-0.00004356,-0.00003499,-0.00000327,0.0000
 1216,0.00000586,0.00001006,0.00000753,0.00000229,0.00000456,-0.0000171
 2,0.00000336,-0.00004637,0.00001839,-0.00002508,0.00000963,-0.00001688
 ,-0.00000236,-0.00026982,0.00028499,-0.00143494,0.00022688,-0.00069578
 ,-0.00093979,-0.17709469,-0.06363200,-0.08317649,-0.00807407,-0.036717
 17,-0.00071756,0.20118453,0.00292891,0.00895837,0.00015300,0.00012871,
 -0.00079285,0.00150128,-0.00099597,0.00107031,0.00000539,0.00051313,0.
 00055517,-0.00052019,0.00047911,-0.00059749,0.00001353,-0.00066875,-0.
 00016303,0.00085467,0.00016882,0.00012686,0.00004957,-0.00014324,-0.00
 024903,-0.00017639,0.00003860,0.00005031,0.00003090,0.00003555,0.00018
 931,0.00009611,-0.00002428,-0.00002375,-0.00001453,0.00000507,0.000000
 69,0.00000156,-0.00000125,-0.00000372,-0.00000211,-0.00002477,-0.00001
 532,-0.00003240,-0.00001706,-0.00000685,0.00000106,0.00000199,-0.00000
 146,0.00000518,0.00001002,0.00000375,-0.00000228,-0.00000321,0.0000016
 5,0.00000483,0.00000090,0.00000231,-0.00000434,0.00000305,0.00000099,-
 0.00000203,0.00000034,0.00000132,0.00000046,-0.00000063,0.00000031,0.0
 0000424,0.00016662,0.00013318,-0.00106296,0.00064571,-0.00004199,-0.00
 017669,-0.06541654,-0.12136326,-0.05421742,-0.04762130,-0.05959136,-0.
 01196317,0.11649461,0.18205924,-0.01949137,-0.01146749,-0.00192526,0.0
 0019539,-0.00018692,0.00138823,-0.00010058,-0.00081300,0.00033210,0.00
 033306,-0.00063955,0.00020986,-0.00030455,0.00060161,0.00041234,-0.001
 20403,0.00241473,-0.00263067,-0.00098831,0.00029232,-0.00026957,0.0009
 3319,0.00002560,0.00021314,-0.00042530,0.00022673,-0.00019840,-0.00028
 351,0.00000672,-0.00007259,0.00012550,0.00005452,0.00011433,-0.0000028
 6,-0.00004680,-0.00001368,-0.00000475,0.00002863,0.00000190,-0.0000808
 1,-0.00005689,0.00002137,0.00001320,-0.00007074,0.00000049,0.00000075,
 -0.00000847,0.00000271,-0.00003384,-0.00001967,-0.00001370,-0.00000403
 ,0.00000813,0.00000720,0.00000409,0.00000104,0.00000047,0.00000217,-0.
 00000882,0.00000151,-0.00001991,0.00000898,-0.00001137,0.00000404,-0.0
 0000570,0.00000244,0.00000833,-0.00028572,-0.00049769,-0.00001022,-0.0
 0024603,-0.00031562,-0.08249589,-0.05163571,-0.13788807,0.00571052,-0.
 00006869,0.01933323,0.11444734,0.10612807,0.18407576,-0.02534062,0.014
 96904,0.03553521,-0.00124816,-0.00183152,0.00099654,-0.00107353,-0.001
 83265,-0.00063649,0.00138536,-0.00100043,0.00089630,-0.00052725,0.0007
 1791,-0.00220832,0.00048503,0.00444814,-0.00091951,-0.00255999,0.00060
 247,-0.00089020,0.00234276,0.00079371,0.00082394,-0.00091470,0.0003489
 4,-0.00049001,-0.00056042,-0.00046747,-0.00046656,0.00026939,0.0001372
 3,0.00029516,-0.00002249,-0.00009980,-0.00002039,-0.00001061,0.0000638
 8,0.00001431,-0.00030724,-0.00009010,0.00027186,0.00005241,-0.00014577
 ,0.00002530,-0.00000712,-0.00001840,-0.00001022,-0.00007935,-0.0000378
 9,-0.00003230,0.00000122,0.00000659,-0.00000231,0.00000865,0.00000882,
 0.00000455,0.00000336,-0.00001402,0.00000376,-0.00004167,0.00001462,-0
 .00002213,0.00000881,-0.00001681,-0.00000776,-0.00007516,0.00135222,0.
 00049685,0.00038648,0.00037074,0.00081432,-0.14680563,0.03862330,0.092
 56028,-0.00249516,-0.01426374,0.02897932,0.02141271,-0.00683668,-0.015
 65979,0.15661475,0.01858194,0.00353946,-0.01840136,0.00003847,0.000380
 60,0.00030377,-0.00034325,0.00113520,-0.00066965,-0.00017570,0.0007640
 4,-0.00067542,0.00072519,-0.00027116,0.00073902,0.00049508,-0.00383242
 ,0.00063880,0.00112905,-0.00007525,0.00047459,-0.00106169,-0.00045729,
 -0.00047303,0.00043177,-0.00012118,0.00023792,0.00026767,0.00029001,0.
 00026032,-0.00013571,-0.00007697,-0.00014006,0.00001187,0.00004430,0.0
 0001238,0.00000403,-0.00003064,-0.00000775,0.00007995,0.00003171,-0.00
 009817,-0.00003352,0.00005969,-0.00000875,0.00000349,0.00000621,0.0000
 0765,0.00004003,0.00001972,0.00001172,-0.00000202,-0.00000204,0.000003
 10,-0.00000296,-0.00000191,-0.00000473,0.00000051,0.00000727,-0.000003
 31,0.00001889,-0.00000590,0.00001055,-0.00000446,0.00000718,0.00000575
 ,0.00008403,0.00014945,-0.00029417,0.00027262,-0.00009275,-0.00031607,
 0.03744097,-0.09264543,-0.04301930,-0.02366083,0.00656019,0.03937771,0
 .00144935,-0.01055268,-0.04466531,-0.03640855,0.09532403,0.01114279,-0
 .00419704,-0.00496479,0.00015007,0.00244466,0.00013202,0.00116335,0.00
 019352,0.00063204,-0.00095136,-0.00013334,-0.00008834,-0.00013014,0.00
 018303,0.00012525,0.00114934,-0.00188357,0.00061434,0.00089879,-0.0002
 7736,0.00043581,-0.00082670,-0.00051074,-0.00048651,0.00027650,-0.0000
 6079,0.00018838,0.00011612,0.00031675,0.00032574,-0.00007838,-0.000046
 08,-0.00011766,0.00001276,0.00003148,0.00000221,0.00000505,-0.00002164
 ,-0.00000956,0.00013440,0.00001979,-0.00013055,-0.00002223,0.00005210,
 -0.00002299,0.00000667,0.00000674,0.00001069,0.00002214,0.00000837,0.0
 0001190,-0.00000487,0.00000348,0.00000843,-0.00000278,-0.00000784,-0.0
 0000188,-0.00000197,0.00000145,-0.00000048,0.00001297,-0.00000281,0.00
 000612,-0.00000257,0.00000781,0.00000828,-0.00031727,-0.00125556,-0.00
 066505,-0.00067502,-0.00017779,-0.00025249,0.09395273,-0.04598312,-0.2
 0048307,0.03387018,0.02563521,-0.05242156,-0.00021818,-0.04048216,-0.0
 6229455,-0.14001517,0.06661799,0.31913151,0.00031419,0.00588485,-0.002
 71811,-0.00189621,-0.00206829,0.00114014,0.00247007,0.00150611,0.00015
 699,-0.01967129,-0.00593024,0.00856528,-0.15146273,-0.04400086,0.05002
 269,-0.04328822,-0.01469378,0.01595137,0.00472624,0.00219143,-0.001455
 20,-0.00189895,-0.00461740,-0.00227835,0.00083596,0.00041262,0.0005334
 8,0.00023135,0.00403964,-0.00200365,-0.00012731,-0.00023755,0.00001541
 ,0.00005857,0.00004077,0.00005805,0.00000147,-0.00001435,0.00000718,0.
 00034651,-0.00014408,-0.00066256,-0.00017490,-0.00008933,0.00026598,0.
 00003251,-0.00000375,0.00001917,0.00016853,0.00003548,0.00003504,-0.00
 000402,-0.00001196,-0.00000964,-0.00000794,0.00003925,-0.00003226,0.00
 002178,0.00000808,-0.00000303,-0.00000508,0.00001155,0.00000061,0.0000
 0126,-0.00001125,-0.00000329,0.00011281,-0.00007851,-0.00003150,0.0005
 1586,-0.00102065,0.00012332,0.00155013,-0.00263722,0.00153273,-0.00032
 379,0.00087683,-0.00047620,-0.00091978,0.00012836,-0.00065312,-0.00091
 620,0.00074869,0.00033417,0.20949686,0.00159799,0.00028294,0.00240050,
 -0.00128979,0.00001532,-0.00057835,0.00431193,-0.00074400,0.00278079,-
 0.02773253,-0.00892693,0.01354227,-0.04021312,-0.05315640,0.02531529,0
 .00618692,0.00660855,-0.00298511,-0.00245287,-0.00197174,0.00062472,-0
 .00125240,-0.00214003,0.00078969,0.00032948,0.00049665,-0.00027178,0.0
 0055142,0.00024458,0.00081448,-0.00006690,-0.00010913,0.00006228,0.000
 03582,0.00001728,0.00001405,-0.00000511,-0.00000898,0.00000758,-0.0003
 2012,0.00018774,0.00025278,-0.00015043,-0.00010095,0.00003441,-0.00000
 531,0.00001013,-0.00000298,0.00007244,0.00001517,0.00003802,-0.0000029
 9,-0.00001119,-0.00000193,-0.00000332,0.00002047,-0.00001570,0.0000123
 1,0.00000588,-0.00000146,-0.00000205,0.00000542,-0.00000042,0.00000167
 ,-0.00000419,-0.00000148,-0.00003429,0.00004172,-0.00020545,0.00055587
 ,-0.00003507,-0.00185769,0.00054913,-0.00027890,0.00031567,-0.00009711
 ,0.00031865,-0.00015133,0.00004152,0.00007018,0.00003656,-0.00017430,0
 .00017917,-0.00002737,0.06057340,0.05999107,-0.00078717,0.00110468,0.0
 0386897,0.00066624,0.00026085,-0.00102719,-0.00190040,0.00273276,0.002
 67401,0.02018445,0.00886715,-0.00505943,0.04641058,0.02459925,-0.04709
 109,0.00474952,0.00095604,0.00322534,-0.00057800,-0.00130123,-0.002971
 68,0.00149418,0.00286789,-0.00234022,-0.00104528,-0.00007765,0.0003633
 1,-0.00016181,0.00215932,-0.00501620,0.00014800,0.00018297,0.00006567,
 -0.00005039,-0.00004281,-0.00001139,0.00000165,0.00002223,-0.00000998,
 0.00034316,-0.00007077,-0.00013361,-0.00007790,0.00004891,-0.00009767,
 0.00003401,-0.00002367,0.00000434,-0.00014351,-0.00003495,-0.00005405,
 -0.00000024,0.00001431,0.00000096,0.00000949,-0.00002771,0.00001857,-0
 .00001501,-0.00000644,0.00000405,-0.00000519,-0.00000594,-0.00000316,0
 .00000045,0.00000420,0.00000164,-0.00005571,-0.00024315,-0.00030725,-0
 .00086431,-0.00146178,-0.00164325,-0.00072780,0.00077017,-0.00038578,0
 .00013299,-0.00035155,0.00023345,0.00033629,-0.00010744,0.00025532,0.0
 0015771,-0.00009630,-0.00000096,-0.06889798,-0.04154712,0.05593189,-0.
 00338290,0.00002516,0.00072711,0.00481692,0.02193254,-0.01322143,-0.04
 056211,-0.00565247,0.00538961,-0.00323881,-0.02055107,0.01341264,-0.00
 375090,0.00177831,-0.00028092,0.00100921,-0.00012435,-0.00011964,-0.00
 273600,-0.00602423,0.00289102,0.00109666,0.00009611,0.00196443,-0.0002
 6627,0.00030167,-0.00030827,-0.00017035,-0.00033875,-0.00068373,0.0001
 0314,0.00005219,0.00008988,-0.00001564,-0.00004880,0.00000127,-0.00000
 541,0.00002770,0.00000324,-0.00196779,-0.00217373,0.00106446,0.0000345
 4,-0.00006880,0.00001374,-0.00000670,-0.00000704,0.00000652,-0.0000274
 6,-0.00001348,-0.00000784,0.00000077,0.00000445,0.00000100,0.00000414,
 0.00000686,-0.00000330,0.00000289,-0.00000282,-0.00000039,-0.00001633,
 0.00000411,-0.00000748,0.00000308,-0.00000734,-0.00000081,0.00096797,0
 .00067652,-0.00072628,0.00017064,-0.00001245,-0.00005094,0.00047745,0.
 00034852,-0.00016055,-0.00023519,0.00051279,-0.00028504,0.00002356,0.0
 0000420,-0.00001472,0.00001435,0.00000507,-0.00000139,-0.00018766,-0.0
 0101727,0.00064200,0.04784418,0.00486910,0.00321196,0.00057995,-0.0005
 2846,-0.03025479,0.01984637,-0.00912931,-0.13540812,0.06752476,0.00023
 057,-0.02531025,0.01859762,-0.00157492,0.00445334,0.00039790,-0.000393
 75,-0.00206870,0.00079018,0.00135556,0.00023227,-0.00225798,0.00087985
 ,0.00020715,-0.00044465,-0.00067964,0.00049216,-0.00045991,-0.00033446
 ,0.00055541,-0.00016360,-0.00001557,0.00002490,0.00022304,-0.00002838,
 -0.00010153,0.00002567,-0.00001975,0.00004626,-0.00000585,-0.00228697,
 -0.00015917,0.00049287,-0.00011438,-0.00020991,0.00012063,-0.00000511,
 -0.00002875,0.00000398,0.,0.00000674,-0.00003929,-0.00000404,0.0000023
 2,0.00000287,0.00000273,0.00004066,-0.00003588,0.00002210,0.00000878,-
 0.00000508,-0.00002214,0.00000305,-0.00000894,0.00000053,-0.00001300,0
 .00000233,-0.00069053,-0.00020095,-0.00152457,-0.00005490,-0.00006257,
 -0.00021377,-0.00335585,0.00021469,0.00048921,0.00087919,-0.00097682,0
 .00037345,0.00088949,0.00017884,0.00039187,0.00078051,-0.00033262,-0.0
 0045518,-0.00093785,-0.00102341,0.00080779,0.01026639,0.18647204,-0.00
 187753,0.00131804,0.00426930,0.00074070,0.01762240,-0.00656587,0.00546
 598,0.06822846,-0.06360680,0.00274787,0.01877447,-0.00759423,0.0016923
 6,-0.00052315,0.00397107,-0.00030980,0.00081583,-0.00118409,-0.0008349
 2,-0.00060053,-0.00066405,-0.00082402,0.00061759,-0.00058174,0.0003788
 7,-0.00041256,0.00031756,0.00042302,-0.00026012,0.00040600,-0.00002844
 ,-0.00001747,-0.00012160,0.00002033,0.00006256,-0.00002054,0.00000775,
 -0.00002539,0.00000440,0.00168754,0.00003158,-0.00094929,0.00000956,0.
 00012796,-0.00009025,0.00002232,0.00002539,0.00000252,-0.00000171,0.00
 000132,0.00002282,-0.00000210,-0.00000206,0.00000252,-0.00000021,-0.00
 002808,0.00002020,-0.00001210,-0.00000620,0.00000402,0.00001383,-0.000
 00160,0.00000499,0.00000042,0.00000909,0.00000032,0.00008846,-0.001694
 65,-0.00191336,-0.00003353,-0.00019555,-0.00024656,0.00204351,0.000033
 95,0.00004305,-0.00052339,0.00044907,-0.00033007,-0.00052964,-0.000085
 75,-0.00024121,-0.00049425,0.00017213,0.00030769,0.00046326,0.00061909
 ,-0.00049462,-0.01033415,-0.10505581,0.07522783\\0.00000862,0.00001245
 ,-0.00000712,0.00000578,-0.00001477,0.00000381,-0.00001905,0.00000824,
 -0.00000781,0.00001897,0.00000252,-0.00000310,-0.00000167,-0.00000574,
 0.00000452,-0.00000976,0.00000408,0.00000359,-0.00001162,0.00000210,-0
 .00000741,0.00000709,0.00001045,0.00001012,-0.00000176,0.00000239,-0.0
 0000094,-0.00000114,-0.00001226,-0.00000356,0.00000184,-0.00000240,0.0
 0000173,0.00000249,0.00000190,0.00000105,-0.00000267,-0.00000362,0.000
 00076,0.00000381,-0.00000032,-0.00000349,0.00000179,0.00000118,-0.0000
 0333,-0.00000230,-0.00000292,0.00000294,0.00000016,0.00000238,0.000002
 33,0.00000106,0.00000072,-0.00000286,-0.00000083,-0.00000370,-0.000001
 82,-0.00000026,0.00000115,0.00000214,0.00000115,-0.00000351,0.00000047
 ,-0.00000255,-0.00000350,0.00000374,0.00000026,-0.00000080,-0.00000509
 ,0.00000197,0.00000352,0.00000463,0.00000313,-0.00000576,0.00000400,-0
 .00000438,-0.00000155,0.00000493,-0.00000204,0.00000229,-0.00001031,-0
 .00000423,0.00000588,0.00000768,0.00000497,0.00000786,0.00000159,0.000
 00117,-0.00000826,-0.00000319\\\@


0EVERYBODY IS IGNORANT, ONLY ON DIFFERENT SUBJECTS.
0          WILL ROGERS
 Job cpu time:       0 days  3 hours 17 minutes 40.4 seconds.
 File lengths (MBytes):  RWF=    521 Int=      0 D2E=      0 Chk=     12 Scr=      1
 Normal termination of Gaussian 09 at Tue Jul 10 16:42:50 2018.
WARNING: pbs_rusage is deprecated and values produced may not be accurate


=============================================================================
                                     Resource usage:
                                       CPU time:              13:55:30
   JobId:    8296101.r-man2            Elapsed time:          03:30:13
   Project:             q95            Requested time:        96:00:00
   Service Units:     14.01 
                                       Max physical memory:      723MB
                                       Max virtual memory:      1399MB
                                       Requested memory:           0MB

                                       Number of cpus:               4

                                       Max jobfs disk use:       0.5GB
                                       Requested jobfs:         16.0GB
=============================================================================

