 Entering Gaussian System, Link 0=/apps/gaussian/g09e01/g09/g09
 AtFile(1): /home/507/hio507/Basis/6-31pGd.gbs
 Initial command:
 /apps/gaussian/g09e01/g09/l1.exe "/jobfs/local/5979801.r-man2/Gau-5083.inp" -scrdir="/jobfs/local/5979801.r-man2/"
 Entering Link 1 = /apps/gaussian/g09e01/g09/l1.exe PID=      5084.
  
 Copyright (c) 1988,1990,1992,1993,1995,1998,2003,2009,2015,
            Gaussian, Inc.  All Rights Reserved.
  
 This is part of the Gaussian(R) 09 program.  It is based on
 the Gaussian(R) 03 system (copyright 2003, Gaussian, Inc.),
 the Gaussian(R) 98 system (copyright 1998, Gaussian, Inc.),
 the Gaussian(R) 94 system (copyright 1995, Gaussian, Inc.),
 the Gaussian 92(TM) system (copyright 1992, Gaussian, Inc.),
 the Gaussian 90(TM) system (copyright 1990, Gaussian, Inc.),
 the Gaussian 88(TM) system (copyright 1988, Gaussian, Inc.),
 the Gaussian 86(TM) system (copyright 1986, Carnegie Mellon
 University), and the Gaussian 82(TM) system (copyright 1983,
 Carnegie Mellon University). Gaussian is a federally registered
 trademark of Gaussian, Inc.
  
 This software contains proprietary and confidential information,
 including trade secrets, belonging to Gaussian, Inc.
  
 This software is provided under written license and may be
 used, copied, transmitted, or stored only in accord with that
 written license.
  
 The following legend is applicable only to US Government
 contracts under FAR:
  
                    RESTRICTED RIGHTS LEGEND
  
 Use, reproduction and disclosure by the US Government is
 subject to restrictions as set forth in subparagraphs (a)
 and (c) of the Commercial Computer Software - Restricted
 Rights clause in FAR 52.227-19.
  
 Gaussian, Inc.
 340 Quinnipiac St., Bldg. 40, Wallingford CT 06492
  
  
 ---------------------------------------------------------------
 Warning -- This program may not be used in any manner that
 competes with the business of Gaussian, Inc. or will provide
 assistance to any competitor of Gaussian, Inc.  The licensee
 of this program is prohibited from giving any competitor of
 Gaussian, Inc. access to this program.  By using this program,
 the user acknowledges that Gaussian, Inc. is engaged in the
 business of creating and licensing software in the field of
 computational chemistry and represents and warrants to the
 licensee that it is not a competitor of Gaussian, Inc. and that
 it will not use this program in any manner prohibited above.
 ---------------------------------------------------------------
  

 Cite this work as:
 Gaussian 09, Revision E.01,
 M. J. Frisch, G. W. Trucks, H. B. Schlegel, G. E. Scuseria, 
 M. A. Robb, J. R. Cheeseman, G. Scalmani, V. Barone, B. Mennucci, 
 G. A. Petersson, H. Nakatsuji, M. Caricato, X. Li, H. P. Hratchian, 
 A. F. Izmaylov, J. Bloino, G. Zheng, J. L. Sonnenberg, M. Hada, 
 M. Ehara, K. Toyota, R. Fukuda, J. Hasegawa, M. Ishida, T. Nakajima, 
 Y. Honda, O. Kitao, H. Nakai, T. Vreven, J. A. Montgomery, Jr., 
 J. E. Peralta, F. Ogliaro, M. Bearpark, J. J. Heyd, E. Brothers, 
 K. N. Kudin, V. N. Staroverov, T. Keith, R. Kobayashi, J. Normand, 
 K. Raghavachari, A. Rendell, J. C. Burant, S. S. Iyengar, J. Tomasi, 
 M. Cossi, N. Rega, J. M. Millam, M. Klene, J. E. Knox, J. B. Cross, 
 V. Bakken, C. Adamo, J. Jaramillo, R. Gomperts, R. E. Stratmann, 
 O. Yazyev, A. J. Austin, R. Cammi, C. Pomelli, J. W. Ochterski, 
 R. L. Martin, K. Morokuma, V. G. Zakrzewski, G. A. Voth, 
 P. Salvador, J. J. Dannenberg, S. Dapprich, A. D. Daniels, 
 O. Farkas, J. B. Foresman, J. V. Ortiz, J. Cioslowski, 
 and D. J. Fox, Gaussian, Inc., Wallingford CT, 2013.
 
 ******************************************
 Gaussian 09:  ES64L-G09RevE.01 30-Nov-2015
                21-Feb-2019 
 ******************************************
 %chk=aryl_urea_dichloro_CF3.M062X_6-31pGd_opt_Pentadecane.chk
 %mem=196608000
 %nproc=4
 Will use up to    4 processors via shared memory.
 ----------------------------------------------------------------------
 # M062X/Gen 6D SCF=Tight INT(grid=ultrafine) OPT IOP(2/17=4) SCRF=(SMD
 ,Solvent=n-Pentadecane) maxdisk=2147483648
 ----------------------------------------------------------------------
 1/14=-1,18=20,19=15,26=4,38=1/1,3;
 2/9=110,12=2,17=4,18=5,40=1/2;
 3/5=7,8=2,11=2,16=1,25=1,30=1,70=32201,71=1,72=151,74=-55,75=-5/1,2,3;
 4//1;
 5/5=2,32=2,38=5,53=151/2;
 6/7=2,8=2,9=2,10=2,28=1/1;
 7//1,2,3,16;
 1/14=-1,18=20,19=15,26=4/3(2);
 2/9=110,17=4/2;
 99//99;
 2/9=110,17=4/2;
 3/5=7,6=1,8=2,11=2,16=1,25=1,30=1,70=32205,71=1,72=151,74=-55,75=-5,82=7/1,2,3;
 4/5=5,16=3,69=1/1;
 5/5=2,32=2,38=5,53=151/2;
 7//1,2,3,16;
 1/14=-1,18=20,19=15,26=4/3(-5);
 2/9=110,17=4/2;
 6/7=2,8=2,9=2,10=2,19=2,28=1/1;
 99/9=1/99;
 ----------------------------------------------------
 aryl_urea_dichloro_CF3.M062X_6-31pGd_opt_Pentadecane
 ----------------------------------------------------
 Symbolic Z-matrix:
 Charge =  0 Multiplicity = 1
 C                    -4.09778   3.49934  -1.01609 
 C                    -4.15955   2.36567  -0.21087 
 C                    -2.98298   1.69073   0.0756 
 C                    -1.74351   2.10056  -0.44001 
 C                    -1.73443   3.23323  -1.26526 
 C                    -2.89457   3.94463  -1.54827 
 N                    -0.56447   1.39417  -0.1651 
 C                     0.41672   1.96079   0.64433 
 N                     1.47326   1.16843   0.89473 
 O                     0.31344   3.11397   1.08325 
 C                     2.55771   1.60173   1.76851 
 C                     3.59749   0.50019   1.90472 
 C                     4.73675   0.93084   2.82277 
 H                    -0.62991   0.38006  -0.15921 
 H                     1.5154    0.24175   0.48433 
 H                     2.14833   1.85959   2.75229 
 H                     3.01807   2.50629   1.35465 
 H                     3.98971   0.24959   0.91148 
 H                     3.11711  -0.40276   2.30105 
 H                     5.23703   1.8244    2.43353 
 H                     5.48554   0.13871   2.91555 
 H                     4.36415   1.1627    3.82657 
 H                    -5.10322   2.02116   0.20128 
 H                    -2.85239   4.82058  -2.18625 
 C                    -5.37908   4.21912  -1.32549 
 F                    -5.17783   5.38101  -1.96427 
 F                    -6.19248   3.47862  -2.10605 
 F                    -6.08039   4.49707  -0.20985 
 Cl                   -0.24763   3.74916  -1.99792 
 Cl                   -3.04542   0.3023    1.12138 
 

 GradGradGradGradGradGradGradGradGradGradGradGradGradGradGradGradGradGrad
 Berny optimization.
 Initialization pass.
                           ----------------------------
                           !    Initial Parameters    !
                           ! (Angstroms and Degrees)  !
 --------------------------                            --------------------------
 ! Name  Definition              Value          Derivative Info.                !
 --------------------------------------------------------------------------------
 ! R1    R(1,2)                  1.3919         estimate D2E/DX2                !
 ! R2    R(1,6)                  1.389          estimate D2E/DX2                !
 ! R3    R(1,25)                 1.5018         estimate D2E/DX2                !
 ! R4    R(2,3)                  1.3863         estimate D2E/DX2                !
 ! R5    R(2,23)                 1.0858         estimate D2E/DX2                !
 ! R6    R(3,4)                  1.4036         estimate D2E/DX2                !
 ! R7    R(3,30)                 1.7393         estimate D2E/DX2                !
 ! R8    R(4,5)                  1.4015         estimate D2E/DX2                !
 ! R9    R(4,7)                  1.4017         estimate D2E/DX2                !
 ! R10   R(5,6)                  1.39           estimate D2E/DX2                !
 ! R11   R(5,29)                 1.736          estimate D2E/DX2                !
 ! R12   R(6,24)                 1.0845         estimate D2E/DX2                !
 ! R13   R(7,8)                  1.3925         estimate D2E/DX2                !
 ! R14   R(7,14)                 1.0162         estimate D2E/DX2                !
 ! R15   R(8,9)                  1.3442         estimate D2E/DX2                !
 ! R16   R(8,10)                 1.2382         estimate D2E/DX2                !
 ! R17   R(9,11)                 1.4585         estimate D2E/DX2                !
 ! R18   R(9,15)                 1.0144         estimate D2E/DX2                !
 ! R19   R(11,12)                1.5209         estimate D2E/DX2                !
 ! R20   R(11,16)                1.0963         estimate D2E/DX2                !
 ! R21   R(11,17)                1.0961         estimate D2E/DX2                !
 ! R22   R(12,13)                1.5252         estimate D2E/DX2                !
 ! R23   R(12,18)                1.0969         estimate D2E/DX2                !
 ! R24   R(12,19)                1.0969         estimate D2E/DX2                !
 ! R25   R(13,20)                1.0955         estimate D2E/DX2                !
 ! R26   R(13,21)                1.094          estimate D2E/DX2                !
 ! R27   R(13,22)                1.0955         estimate D2E/DX2                !
 ! R28   R(25,26)                1.3411         estimate D2E/DX2                !
 ! R29   R(25,27)                1.3488         estimate D2E/DX2                !
 ! R30   R(25,28)                1.3468         estimate D2E/DX2                !
 ! A1    A(2,1,6)              121.4134         estimate D2E/DX2                !
 ! A2    A(2,1,25)             118.1427         estimate D2E/DX2                !
 ! A3    A(6,1,25)             120.4289         estimate D2E/DX2                !
 ! A4    A(1,2,3)              118.5813         estimate D2E/DX2                !
 ! A5    A(1,2,23)             121.1011         estimate D2E/DX2                !
 ! A6    A(3,2,23)             120.3097         estimate D2E/DX2                !
 ! A7    A(2,3,4)              122.0994         estimate D2E/DX2                !
 ! A8    A(2,3,30)             118.8426         estimate D2E/DX2                !
 ! A9    A(4,3,30)             119.0546         estimate D2E/DX2                !
 ! A10   A(3,4,5)              117.2593         estimate D2E/DX2                !
 ! A11   A(3,4,7)              121.5745         estimate D2E/DX2                !
 ! A12   A(5,4,7)              121.1547         estimate D2E/DX2                !
 ! A13   A(4,5,6)              121.879          estimate D2E/DX2                !
 ! A14   A(4,5,29)             119.622          estimate D2E/DX2                !
 ! A15   A(6,5,29)             118.4767         estimate D2E/DX2                !
 ! A16   A(1,6,5)              118.7456         estimate D2E/DX2                !
 ! A17   A(1,6,24)             121.2013         estimate D2E/DX2                !
 ! A18   A(5,6,24)             120.0463         estimate D2E/DX2                !
 ! A19   A(4,7,8)              120.1099         estimate D2E/DX2                !
 ! A20   A(4,7,14)             116.7358         estimate D2E/DX2                !
 ! A21   A(8,7,14)             116.6199         estimate D2E/DX2                !
 ! A22   A(7,8,9)              114.9784         estimate D2E/DX2                !
 ! A23   A(7,8,10)             121.7529         estimate D2E/DX2                !
 ! A24   A(9,8,10)             123.2661         estimate D2E/DX2                !
 ! A25   A(8,9,11)             121.3925         estimate D2E/DX2                !
 ! A26   A(8,9,15)             119.7226         estimate D2E/DX2                !
 ! A27   A(11,9,15)            118.8751         estimate D2E/DX2                !
 ! A28   A(9,11,12)            110.2925         estimate D2E/DX2                !
 ! A29   A(9,11,16)            109.2583         estimate D2E/DX2                !
 ! A30   A(9,11,17)            109.3448         estimate D2E/DX2                !
 ! A31   A(12,11,16)           110.1986         estimate D2E/DX2                !
 ! A32   A(12,11,17)           110.1441         estimate D2E/DX2                !
 ! A33   A(16,11,17)           107.5504         estimate D2E/DX2                !
 ! A34   A(11,12,13)           111.1054         estimate D2E/DX2                !
 ! A35   A(11,12,18)           109.1985         estimate D2E/DX2                !
 ! A36   A(11,12,19)           109.2179         estimate D2E/DX2                !
 ! A37   A(13,12,18)           110.0273         estimate D2E/DX2                !
 ! A38   A(13,12,19)           110.0033         estimate D2E/DX2                !
 ! A39   A(18,12,19)           107.1996         estimate D2E/DX2                !
 ! A40   A(12,13,20)           110.9488         estimate D2E/DX2                !
 ! A41   A(12,13,21)           110.9695         estimate D2E/DX2                !
 ! A42   A(12,13,22)           110.9302         estimate D2E/DX2                !
 ! A43   A(20,13,21)           107.9483         estimate D2E/DX2                !
 ! A44   A(20,13,22)           107.9529         estimate D2E/DX2                !
 ! A45   A(21,13,22)           107.9587         estimate D2E/DX2                !
 ! A46   A(1,25,26)            112.6639         estimate D2E/DX2                !
 ! A47   A(1,25,27)            111.7529         estimate D2E/DX2                !
 ! A48   A(1,25,28)            111.8712         estimate D2E/DX2                !
 ! A49   A(26,25,27)           106.8878         estimate D2E/DX2                !
 ! A50   A(26,25,28)           107.0921         estimate D2E/DX2                !
 ! A51   A(27,25,28)           106.1808         estimate D2E/DX2                !
 ! D1    D(6,1,2,3)              1.1166         estimate D2E/DX2                !
 ! D2    D(6,1,2,23)          -179.9042         estimate D2E/DX2                !
 ! D3    D(25,1,2,3)           179.7149         estimate D2E/DX2                !
 ! D4    D(25,1,2,23)           -1.306          estimate D2E/DX2                !
 ! D5    D(2,1,6,5)              0.1037         estimate D2E/DX2                !
 ! D6    D(2,1,6,24)           179.1575         estimate D2E/DX2                !
 ! D7    D(25,1,6,5)          -178.4628         estimate D2E/DX2                !
 ! D8    D(25,1,6,24)            0.591          estimate D2E/DX2                !
 ! D9    D(2,1,25,26)          172.171          estimate D2E/DX2                !
 ! D10   D(2,1,25,27)          -67.4604         estimate D2E/DX2                !
 ! D11   D(2,1,25,28)           51.4523         estimate D2E/DX2                !
 ! D12   D(6,1,25,26)           -9.2164         estimate D2E/DX2                !
 ! D13   D(6,1,25,27)          111.1522         estimate D2E/DX2                !
 ! D14   D(6,1,25,28)         -129.9351         estimate D2E/DX2                !
 ! D15   D(1,2,3,4)             -1.213          estimate D2E/DX2                !
 ! D16   D(1,2,3,30)           178.1159         estimate D2E/DX2                !
 ! D17   D(23,2,3,4)           179.7995         estimate D2E/DX2                !
 ! D18   D(23,2,3,30)           -0.8716         estimate D2E/DX2                !
 ! D19   D(2,3,4,5)              0.0871         estimate D2E/DX2                !
 ! D20   D(2,3,4,7)           -178.6921         estimate D2E/DX2                !
 ! D21   D(30,3,4,5)          -179.2403         estimate D2E/DX2                !
 ! D22   D(30,3,4,7)             1.9804         estimate D2E/DX2                !
 ! D23   D(3,4,5,6)              1.1908         estimate D2E/DX2                !
 ! D24   D(3,4,5,29)          -177.0653         estimate D2E/DX2                !
 ! D25   D(7,4,5,6)            179.9755         estimate D2E/DX2                !
 ! D26   D(7,4,5,29)             1.7194         estimate D2E/DX2                !
 ! D27   D(3,4,7,8)           -111.0606         estimate D2E/DX2                !
 ! D28   D(3,4,7,14)            39.641          estimate D2E/DX2                !
 ! D29   D(5,4,7,8)             70.2074         estimate D2E/DX2                !
 ! D30   D(5,4,7,14)          -139.0909         estimate D2E/DX2                !
 ! D31   D(4,5,6,1)             -1.2913         estimate D2E/DX2                !
 ! D32   D(4,5,6,24)           179.6436         estimate D2E/DX2                !
 ! D33   D(29,5,6,1)           176.9841         estimate D2E/DX2                !
 ! D34   D(29,5,6,24)           -2.081          estimate D2E/DX2                !
 ! D35   D(4,7,8,9)            176.8064         estimate D2E/DX2                !
 ! D36   D(4,7,8,10)            -3.7709         estimate D2E/DX2                !
 ! D37   D(14,7,8,9)            26.072          estimate D2E/DX2                !
 ! D38   D(14,7,8,10)         -154.5053         estimate D2E/DX2                !
 ! D39   D(7,8,9,11)          -177.5872         estimate D2E/DX2                !
 ! D40   D(7,8,9,15)             1.2632         estimate D2E/DX2                !
 ! D41   D(10,8,9,11)            3.0            estimate D2E/DX2                !
 ! D42   D(10,8,9,15)         -178.1497         estimate D2E/DX2                !
 ! D43   D(8,9,11,12)          178.4518         estimate D2E/DX2                !
 ! D44   D(8,9,11,16)           57.1778         estimate D2E/DX2                !
 ! D45   D(8,9,11,17)          -60.286          estimate D2E/DX2                !
 ! D46   D(15,9,11,12)          -0.408          estimate D2E/DX2                !
 ! D47   D(15,9,11,16)        -121.682          estimate D2E/DX2                !
 ! D48   D(15,9,11,17)         120.8541         estimate D2E/DX2                !
 ! D49   D(9,11,12,13)        -179.6348         estimate D2E/DX2                !
 ! D50   D(9,11,12,18)          58.824          estimate D2E/DX2                !
 ! D51   D(9,11,12,19)         -58.1107         estimate D2E/DX2                !
 ! D52   D(16,11,12,13)        -58.9222         estimate D2E/DX2                !
 ! D53   D(16,11,12,18)        179.5366         estimate D2E/DX2                !
 ! D54   D(16,11,12,19)         62.6019         estimate D2E/DX2                !
 ! D55   D(17,11,12,13)         59.58           estimate D2E/DX2                !
 ! D56   D(17,11,12,18)        -61.9612         estimate D2E/DX2                !
 ! D57   D(17,11,12,19)       -178.8959         estimate D2E/DX2                !
 ! D58   D(11,12,13,20)        -59.7359         estimate D2E/DX2                !
 ! D59   D(11,12,13,21)       -179.7424         estimate D2E/DX2                !
 ! D60   D(11,12,13,22)         60.2503         estimate D2E/DX2                !
 ! D61   D(18,12,13,20)         61.3195         estimate D2E/DX2                !
 ! D62   D(18,12,13,21)        -58.687          estimate D2E/DX2                !
 ! D63   D(18,12,13,22)       -178.6943         estimate D2E/DX2                !
 ! D64   D(19,12,13,20)        179.2003         estimate D2E/DX2                !
 ! D65   D(19,12,13,21)         59.1938         estimate D2E/DX2                !
 ! D66   D(19,12,13,22)        -60.8134         estimate D2E/DX2                !
 --------------------------------------------------------------------------------
 Trust Radius=3.00D-01 FncErr=1.00D-07 GrdErr=1.00D-06
 Number of steps in this run=    157 maximum allowed number of steps=    180.
 GradGradGradGradGradGradGradGradGradGradGradGradGradGradGradGradGradGrad

                          Input orientation:                          
 ---------------------------------------------------------------------
 Center     Atomic      Atomic             Coordinates (Angstroms)
 Number     Number       Type             X           Y           Z
 ---------------------------------------------------------------------
      1          6           0       -4.097781    3.499341   -1.016088
      2          6           0       -4.159549    2.365667   -0.210872
      3          6           0       -2.982981    1.690734    0.075601
      4          6           0       -1.743511    2.100559   -0.440009
      5          6           0       -1.734432    3.233235   -1.265256
      6          6           0       -2.894573    3.944634   -1.548266
      7          7           0       -0.564473    1.394172   -0.165098
      8          6           0        0.416720    1.960788    0.644335
      9          7           0        1.473265    1.168426    0.894731
     10          8           0        0.313445    3.113972    1.083248
     11          6           0        2.557707    1.601728    1.768507
     12          6           0        3.597494    0.500195    1.904717
     13          6           0        4.736755    0.930841    2.822773
     14          1           0       -0.629909    0.380063   -0.159214
     15          1           0        1.515404    0.241753    0.484326
     16          1           0        2.148329    1.859586    2.752293
     17          1           0        3.018068    2.506289    1.354651
     18          1           0        3.989709    0.249586    0.911481
     19          1           0        3.117109   -0.402762    2.301050
     20          1           0        5.237032    1.824395    2.433534
     21          1           0        5.485538    0.138711    2.915552
     22          1           0        4.364150    1.162696    3.826572
     23          1           0       -5.103222    2.021163    0.201277
     24          1           0       -2.852390    4.820580   -2.186247
     25          6           0       -5.379076    4.219119   -1.325493
     26          9           0       -5.177829    5.381007   -1.964270
     27          9           0       -6.192479    3.478620   -2.106055
     28          9           0       -6.080389    4.497072   -0.209850
     29         17           0       -0.247630    3.749158   -1.997925
     30         17           0       -3.045420    0.302295    1.121376
 ---------------------------------------------------------------------
                    Distance matrix (angstroms):
                    1          2          3          4          5
     1  C    0.000000
     2  C    1.391907   0.000000
     3  C    2.388645   1.386331   0.000000
     4  C    2.798400   2.441316   1.403600   0.000000
     5  C    2.391300   2.783091   2.395011   1.401453   0.000000
     6  C    1.388959   2.425268   2.779357   2.440039   1.390004
     7  N    4.200022   3.724308   2.448482   1.401674   2.441578
     8  C    5.050234   4.673066   3.457507   2.421144   3.145332
     9  N    6.334109   5.863816   4.560910   3.605281   4.383868
    10  O    4.900472   4.716183   3.729260   2.752886   3.118252
    11  C    7.459921   7.044365   5.794228   4.860746   5.503453
    12  C    8.760321   8.253933   6.932942   6.048573   6.778471
    13  C    9.969105   9.508204   8.229138   7.349002   7.993076
    14  H    4.742391   4.050143   2.703691   2.068590   3.253289
    15  H    6.661153   6.099131   4.743634   3.863947   4.750940
    16  H    7.476856   6.987545   5.789951   5.039373   5.753559
    17  H    7.565835   7.347709   6.189805   5.104710   5.475274
    18  H    8.926585   8.493991   7.168961   6.174337   6.812204
    19  H    8.847850   8.180692   6.822496   6.116016   7.033951
    20  H   10.091782   9.776585   8.552563   7.553907   8.016682
    21  H   10.889978  10.380827   9.065865   8.207788   8.898494
    22  H   10.025744   9.507972   8.266132   7.509116   8.210149
    23  H    2.162846   1.085849   2.149512   3.421288   3.868926
    24  H    2.160079   3.411359   3.863800   3.417232   2.148888
    25  C    1.501842   2.482924   3.754606   4.299966   3.776112
    26  F    2.367746   3.633672   4.753582   4.987910   4.118073
    27  F    2.361401   2.993858   4.272825   4.946521   4.543274
    28  F    2.361402   2.869236   4.189386   4.960318   4.647419
    29  Cl   3.981214   4.517822   4.002344   2.717102   1.735961
    30  Cl   3.987144   2.696975   1.739341   2.714156   4.000639
                    6          7          8          9         10
     6  C    0.000000
     7  N    3.721207   0.000000
     8  C    4.439348   1.392470   0.000000
     9  N    5.723074   2.307937   1.344181   0.000000
    10  O    4.231577   2.299308   1.238202   2.272855   0.000000
    11  C    6.798350   3.678303   2.444691   1.458510   2.791626
    12  C    8.119987   4.733423   3.720110   2.445190   4.276870
    13  C    9.296564   6.102873   4.946623   3.797915   5.230457
    14  H    4.445711   1.016235   2.059081   2.481059   3.147680
    15  H    6.106608   2.464895   2.046409   1.014362   3.170655
    16  H    6.947885   4.010870   2.729872   2.093789   2.779568
    17  H    6.742039   4.047350   2.751206   2.094713   2.785305
    18  H    8.191280   4.817641   3.970620   2.678999   4.663595
    19  H    8.358075   4.781726   3.952617   2.673685   4.659506
    20  H    9.299095   6.371455   5.143467   4.118757   5.265738
    21  H   10.229222   6.904289   5.845623   4.608944   6.241800
    22  H    9.450774   6.346521   5.132815   4.117395   5.267022
    23  H    3.411565   4.596477   5.538024   6.667700   5.595747
    24  H    1.084472   4.589105   5.184370   6.445304   4.860516
    25  C    2.509526   5.701512   6.524686   7.822448   6.279185
    26  F    2.729374   6.357273   7.057032   8.375964   6.676893
    27  F    3.377052   6.307669   7.317784   8.550166   7.254768
    28  F    3.499424   6.328927   7.026720   8.328125   6.668296
    29  Cl   2.691971   3.000934   3.259013   4.241358   3.195605
    30  Cl   4.518449   3.000385   3.868408   4.606524   4.380520
                   11         12         13         14         15
    11  C    0.000000
    12  C    1.520883   0.000000
    13  C    2.511934   1.525188   0.000000
    14  H    3.920391   4.705866   6.164144   0.000000
    15  H    2.141272   2.533653   4.039836   2.244023   0.000000
    16  H    1.096321   2.160188   2.750906   4.287711   2.856861
    17  H    1.096103   2.159334   2.755232   4.485573   2.853698
    18  H    2.147884   1.096883   2.162226   4.743867   2.510918
    19  H    2.148142   1.096896   2.161930   4.550369   2.506262
    20  H    2.769589   2.172842   1.095547   6.574910   4.489397
    21  H    3.468187   2.171904   1.093962   6.849169   4.656548
    22  H    2.773376   2.172602   1.095538   6.437362   4.487103
    23  H    7.830835   8.995416  10.241396   4.778462   6.859492
    24  H    7.434396   8.775119   9.890170   5.363440   6.868424
    25  C    8.911571  10.239309  11.417132   6.217166   8.162642
    26  F    9.383767  10.760932  11.875130   6.996517   8.786747
    27  F    9.751959  10.990945  12.256943   6.658336   8.752076
    28  F    9.322747  10.682127  11.786662   6.830817   8.734168
    29  Cl   5.164047   6.369565   7.485061   3.857175   4.644540
    30  Cl   5.788121   6.691867   7.990749   2.735079   4.605498
                   16         17         18         19         20
    16  H    0.000000
    17  H    1.768637   0.000000
    18  H    3.061269   2.496636   0.000000
    19  H    2.502074   3.060729   1.765755   0.000000
    20  H    3.105308   2.559838   2.520413   3.077638   0.000000
    21  H    3.758328   3.759022   2.503217   2.506044   1.770770
    22  H    2.559217   3.118906   3.077617   2.516542   1.772096
    23  H    7.688874   8.217115   9.291085   8.823736  10.580291
    24  H    7.626523   7.235757   8.792282   9.113401   9.785615
    25  C    8.880177   8.979364  10.418030  10.329509  11.513763
    26  F    9.397816   9.297955  10.892436  10.975014  11.851561
    27  F    9.787435   9.887168  11.099960  11.007095  12.408789
    28  F    9.134682   9.444194  10.986600  10.719467  11.925381
    29  Cl   5.645855   4.842445   6.218255   6.858652   7.309177
    30  Cl   5.662161   6.455842   7.038456   6.313914   8.522767
                   21         22         23         24         25
    21  H    0.000000
    22  H    1.770879   0.000000
    23  H   11.092013  10.174029   0.000000
    24  H   10.838325  10.080306   4.313149   0.000000
    25  C   12.356213  11.437479   2.690377   2.736201   0.000000
    26  F   12.845299  11.932198   3.997963   2.402294   1.341089
    27  F   13.143348  12.328908   2.938442   3.600484   1.348792
    28  F   12.748886  11.683285   2.693326   3.798786   1.346758
    29  Cl   8.369397   7.866579   5.603502   2.822797   5.196610
    30  Cl   8.719121   7.934740   2.834721   5.602904   5.174420
                   26         27         28         29         30
    26  F    0.000000
    27  F    2.160716   0.000000
    28  F    2.161931   2.155319   0.000000
    29  Cl   5.193353   5.951983   6.146353   0.000000
    30  Cl   6.313612   5.514465   5.345966   5.425729   0.000000
 Stoichiometry    C11H11Cl2F3N2O
 Framework group  C1[X(C11H11Cl2F3N2O)]
 Deg. of freedom    84
 Full point group                 C1      NOp   1
 Largest Abelian subgroup         C1      NOp   1
 Largest concise Abelian subgroup C1      NOp   1
                         Standard orientation:                         
 ---------------------------------------------------------------------
 Center     Atomic      Atomic             Coordinates (Angstroms)
 Number     Number       Type             X           Y           Z
 ---------------------------------------------------------------------
      1          6           0        2.843486   -0.067775    0.093139
      2          6           0        2.281861    1.201858   -0.006936
      3          6           0        0.930342    1.308269   -0.296739
      4          6           0        0.123371    0.180830   -0.515309
      5          6           0        0.738333   -1.075440   -0.427683
      6          6           0        2.085254   -1.213096   -0.113096
      7          7           0       -1.236154    0.302039   -0.834200
      8          6           0       -2.206660   -0.095385    0.081850
      9          7           0       -3.475229    0.128092   -0.302355
     10          8           0       -1.906845   -0.624036    1.160637
     11          6           0       -4.600163   -0.186176    0.571150
     12          6           0       -5.910659    0.200866   -0.096595
     13          6           0       -7.100037   -0.111868    0.805501
     14          1           0       -1.491220    1.051408   -1.471477
     15          1           0       -3.660498    0.539641   -1.210778
     16          1           0       -4.484171    0.353399    1.518421
     17          1           0       -4.594692   -1.258386    0.798692
     18          1           0       -6.005975   -0.341310   -1.045338
     19          1           0       -5.891946    1.271330   -0.335211
     20          1           0       -7.141736   -1.180721    1.042225
     21          1           0       -8.041653    0.163156    0.321274
     22          1           0       -7.031483    0.440554    1.749076
     23          1           0        2.879743    2.093915    0.153813
     24          1           0        2.529417   -2.200265   -0.047543
     25          6           0        4.309771   -0.171487    0.401002
     26          9           0        4.700232   -1.432512    0.637390
     27          9           0        5.067694    0.289429   -0.615044
     28          9           0        4.648172    0.556900    1.482063
     29         17           0       -0.184123   -2.507520   -0.762020
     30         17           0        0.210853    2.889915   -0.374436
 ---------------------------------------------------------------------
 Rotational constants (GHZ):      0.6315668      0.1328452      0.1172384
 General basis read from cards:  (6D, 7F)
 There are   391 symmetry adapted cartesian basis functions of A   symmetry.
 There are   391 symmetry adapted basis functions of A   symmetry.
   391 basis functions,   700 primitive gaussians,   391 cartesian basis functions
    80 alpha electrons       80 beta electrons
       nuclear repulsion energy      1721.2202445582 Hartrees.
 NAtoms=   30 NActive=   30 NUniq=   30 SFac= 1.00D+00 NAtFMM=   60 NAOKFM=F Big=F
 Integral buffers will be    131072 words long.
 Raffenetti 2 integral format.
 Two-electron integral symmetry is turned on.
 ------------------------------------------------------------------------------
 Polarizable Continuum Model (PCM)
 =================================
 Model                : PCM (using non-symmetric T matrix).
 Atomic radii         : SMD-Coulomb.
 Polarization charges : Total charges.
 Charge compensation  : None.
 Solution method      : On-the-fly selection.
 Cavity type          : VdW (van der Waals Surface) (Alpha=1.000).
 Cavity algorithm     : GePol (No added spheres)
                        Default sphere list used, NSphG=   30.
                        Lebedev-Laikov grids with approx.  5.0 points / Ang**2.
                        Smoothing algorithm: York/Karplus (Gamma=1.0000).
                        Polarization charges: spherical gaussians, with
                                              point-specific exponents (IZeta= 3).
                        Self-potential: point-specific (ISelfS= 7).
                        Self-field    : sphere-specific E.n sum rule (ISelfD= 2).
 1st derivatives      : Analytical E(r).r(x)/FMM algorithm (CHGder, D1EAlg=3).
                        Cavity 1st derivative terms included.
 Solvent              : n-Pentadecane, Eps=   2.033300 Eps(inf)=   2.049192
 ------------------------------------------------------------------------------
 ------------------------------------------------------------------------------
 Atomic radii for non-electrostatic terms: SMD-CDS.
 ------------------------------------------------------------------------------
 Nuclear repulsion after PCM non-electrostatic terms =     1721.2128645824 Hartrees.
 One-electron integrals computed using PRISM.
 NBasis=   391 RedAO= T EigKep=  1.32D-06  NBF=   391
 NBsUse=   390 1.00D-06 EigRej=  7.65D-07 NBFU=   390
 ExpMin= 4.38D-02 ExpMax= 2.52D+04 ExpMxC= 3.78D+03 IAcc=3 IRadAn=         5 AccDes= 0.00D+00
 Harris functional with IExCor= 1009 and IRadAn=       5 diagonalized for initial guess.
 HarFok:  IExCor= 1009 AccDes= 0.00D+00 IRadAn=         5 IDoV= 1 UseB2=F ITyADJ=14
 ICtDFT=  3500011 ScaDFX=  1.000000  1.000000  1.000000  1.000000
 FoFCou: FMM=F IPFlag=           0 FMFlag=      100000 FMFlg1=           0
         NFxFlg=           0 DoJE=T BraDBF=F KetDBF=T FulRan=T
         wScrn=  0.000000 ICntrl=     500 IOpCl=  0 I1Cent=   200000004 NGrid=           0
         NMat0=    1 NMatS0=      1 NMatT0=    0 NMatD0=    1 NMtDS0=    0 NMtDT0=    0
 Petite list used in FoFCou.
 Requested convergence on RMS density matrix=1.00D-08 within 128 cycles.
 Requested convergence on MAX density matrix=1.00D-06.
 Requested convergence on             energy=1.00D-06.
 No special actions if energy rises.
 Inv3:  Mode=1 IEnd=    20124300.
 Iteration    1 A*A^-1 deviation from unit magnitude is 6.22D-15 for   2586.
 Iteration    1 A*A^-1 deviation from orthogonality  is 2.24D-15 for   1722    315.
 Iteration    1 A^-1*A deviation from unit magnitude is 6.44D-15 for   2586.
 Iteration    1 A^-1*A deviation from orthogonality  is 7.01D-15 for   1728   1694.
 Error on total polarization charges =  0.01757
 SCF Done:  E(RM062X) =  -1830.11420149     A.U. after   16 cycles
            NFock= 16  Conv=0.31D-08     -V/T= 2.0054
 SMD-CDS (non-electrostatic) energy       (kcal/mol) =      -4.63
 (included in total energy above)

 **********************************************************************

            Population analysis using the SCF density.

 **********************************************************************

 Orbital symmetries:
       Occupied  (A) (A) (A) (A) (A) (A) (A) (A) (A) (A) (A) (A)
                 (A) (A) (A) (A) (A) (A) (A) (A) (A) (A) (A) (A)
                 (A) (A) (A) (A) (A) (A) (A) (A) (A) (A) (A) (A)
                 (A) (A) (A) (A) (A) (A) (A) (A) (A) (A) (A) (A)
                 (A) (A) (A) (A) (A) (A) (A) (A) (A) (A) (A) (A)
                 (A) (A) (A) (A) (A) (A) (A) (A) (A) (A) (A) (A)
                 (A) (A) (A) (A) (A) (A) (A) (A)
       Virtual   (A) (A) (A) (A) (A) (A) (A) (A) (A) (A) (A) (A)
                 (A) (A) (A) (A) (A) (A) (A) (A) (A) (A) (A) (A)
                 (A) (A) (A) (A) (A) (A) (A) (A) (A) (A) (A) (A)
                 (A) (A) (A) (A) (A) (A) (A) (A) (A) (A) (A) (A)
                 (A) (A) (A) (A) (A) (A) (A) (A) (A) (A) (A) (A)
                 (A) (A) (A) (A) (A) (A) (A) (A) (A) (A) (A) (A)
                 (A) (A) (A) (A) (A) (A) (A) (A) (A) (A) (A) (A)
                 (A) (A) (A) (A) (A) (A) (A) (A) (A) (A) (A) (A)
                 (A) (A) (A) (A) (A) (A) (A) (A) (A) (A) (A) (A)
                 (A) (A) (A) (A) (A) (A) (A) (A) (A) (A) (A) (A)
                 (A) (A) (A) (A) (A) (A) (A) (A) (A) (A) (A) (A)
                 (A) (A) (A) (A) (A) (A) (A) (A) (A) (A) (A) (A)
                 (A) (A) (A) (A) (A) (A) (A) (A) (A) (A) (A) (A)
                 (A) (A) (A) (A) (A) (A) (A) (A) (A) (A) (A) (A)
                 (A) (A) (A) (A) (A) (A) (A) (A) (A) (A) (A) (A)
                 (A) (A) (A) (A) (A) (A) (A) (A) (A) (A) (A) (A)
                 (A) (A) (A) (A) (A) (A) (A) (A) (A) (A) (A) (A)
                 (A) (A) (A) (A) (A) (A) (A) (A) (A) (A) (A) (A)
                 (A) (A) (A) (A) (A) (A) (A) (A) (A) (A) (A) (A)
                 (A) (A) (A) (A) (A) (A) (A) (A) (A) (A) (A) (A)
                 (A) (A) (A) (A) (A) (A) (A) (A) (A) (A) (A) (A)
                 (A) (A) (A) (A) (A) (A) (A) (A) (A) (A) (A) (A)
                 (A) (A) (A) (A) (A) (A) (A) (A) (A) (A) (A) (A)
                 (A) (A) (A) (A) (A) (A) (A) (A) (A) (A) (A) (A)
                 (A) (A) (A) (A) (A) (A) (A) (A) (A) (A) (A) (A)
                 (A) (A) (A) (A) (A) (A) (A) (A) (A) (A)
 The electronic state is 1-A.
 Alpha  occ. eigenvalues -- -102.69563-102.68330 -25.31179 -25.30747 -25.30668
 Alpha  occ. eigenvalues --  -19.61119 -14.80739 -14.79376 -10.82234 -10.68834
 Alpha  occ. eigenvalues --  -10.64551 -10.64166 -10.63786 -10.60432 -10.59513
 Alpha  occ. eigenvalues --  -10.59337 -10.58420 -10.55443 -10.54065  -9.84187
 Alpha  occ. eigenvalues --   -9.82927  -7.56594  -7.55928  -7.55907  -7.55348
 Alpha  occ. eigenvalues --   -7.54664  -7.54637  -1.47556  -1.38403  -1.37882
 Alpha  occ. eigenvalues --   -1.17616  -1.07430  -1.04386  -1.01113  -0.99434
 Alpha  occ. eigenvalues --   -0.95675  -0.89652  -0.88046  -0.85199  -0.82379
 Alpha  occ. eigenvalues --   -0.78543  -0.74194  -0.72406  -0.69804  -0.69738
 Alpha  occ. eigenvalues --   -0.69397  -0.68489  -0.65898  -0.64706  -0.62702
 Alpha  occ. eigenvalues --   -0.59334  -0.57963  -0.57529  -0.56195  -0.55482
 Alpha  occ. eigenvalues --   -0.54501  -0.53837  -0.53722  -0.52485  -0.51840
 Alpha  occ. eigenvalues --   -0.51695  -0.51496  -0.50887  -0.49308  -0.47366
 Alpha  occ. eigenvalues --   -0.46746  -0.46532  -0.45390  -0.44672  -0.43074
 Alpha  occ. eigenvalues --   -0.40969  -0.40482  -0.40454  -0.40297  -0.38733
 Alpha  occ. eigenvalues --   -0.36673  -0.34830  -0.32611  -0.31857  -0.30756
 Alpha virt. eigenvalues --   -0.02081  -0.01213   0.00191   0.02038   0.02485
 Alpha virt. eigenvalues --    0.02698   0.03170   0.04139   0.04369   0.04428
 Alpha virt. eigenvalues --    0.05232   0.05395   0.05780   0.06016   0.07093
 Alpha virt. eigenvalues --    0.07320   0.07596   0.07933   0.08405   0.08856
 Alpha virt. eigenvalues --    0.09093   0.09308   0.09645   0.10131   0.10602
 Alpha virt. eigenvalues --    0.11033   0.11250   0.11569   0.12333   0.12827
 Alpha virt. eigenvalues --    0.13075   0.13462   0.14360   0.15341   0.15461
 Alpha virt. eigenvalues --    0.15908   0.16387   0.16665   0.17592   0.17743
 Alpha virt. eigenvalues --    0.18268   0.18360   0.18468   0.19052   0.19480
 Alpha virt. eigenvalues --    0.19777   0.20464   0.21230   0.21303   0.21446
 Alpha virt. eigenvalues --    0.22190   0.22821   0.23290   0.23679   0.23759
 Alpha virt. eigenvalues --    0.24306   0.24826   0.25143   0.25433   0.26040
 Alpha virt. eigenvalues --    0.26057   0.26594   0.27154   0.27614   0.27713
 Alpha virt. eigenvalues --    0.28083   0.28492   0.29107   0.29370   0.29856
 Alpha virt. eigenvalues --    0.30179   0.30776   0.31223   0.31460   0.31837
 Alpha virt. eigenvalues --    0.31943   0.32234   0.33038   0.33363   0.33816
 Alpha virt. eigenvalues --    0.34003   0.35909   0.36201   0.36548   0.37384
 Alpha virt. eigenvalues --    0.37720   0.38117   0.38447   0.39206   0.39578
 Alpha virt. eigenvalues --    0.39894   0.40214   0.40854   0.41113   0.41841
 Alpha virt. eigenvalues --    0.42865   0.43373   0.45292   0.45433   0.47215
 Alpha virt. eigenvalues --    0.47410   0.48088   0.48829   0.49266   0.51528
 Alpha virt. eigenvalues --    0.54358   0.55750   0.57119   0.57611   0.62802
 Alpha virt. eigenvalues --    0.64833   0.66269   0.66650   0.67828   0.68981
 Alpha virt. eigenvalues --    0.69106   0.69983   0.71905   0.72243   0.73323
 Alpha virt. eigenvalues --    0.73734   0.74596   0.74988   0.75647   0.76752
 Alpha virt. eigenvalues --    0.77280   0.77932   0.78740   0.79636   0.80807
 Alpha virt. eigenvalues --    0.81849   0.82333   0.83903   0.84059   0.84756
 Alpha virt. eigenvalues --    0.85830   0.87109   0.88134   0.88396   0.89767
 Alpha virt. eigenvalues --    0.91140   0.91878   0.92875   0.94422   0.94990
 Alpha virt. eigenvalues --    0.96164   0.97252   0.98022   0.98077   0.98601
 Alpha virt. eigenvalues --    0.99287   1.00920   1.01494   1.03566   1.05044
 Alpha virt. eigenvalues --    1.05221   1.06952   1.07293   1.08270   1.08755
 Alpha virt. eigenvalues --    1.09982   1.10891   1.12168   1.13434   1.14708
 Alpha virt. eigenvalues --    1.15363   1.16408   1.17390   1.19072   1.19481
 Alpha virt. eigenvalues --    1.20859   1.21212   1.22003   1.23338   1.24561
 Alpha virt. eigenvalues --    1.24778   1.26362   1.27993   1.31411   1.32378
 Alpha virt. eigenvalues --    1.37893   1.38485   1.40068   1.41241   1.42037
 Alpha virt. eigenvalues --    1.44574   1.45496   1.47580   1.48243   1.48472
 Alpha virt. eigenvalues --    1.49075   1.50065   1.51654   1.53405   1.55195
 Alpha virt. eigenvalues --    1.56040   1.58487   1.59580   1.60007   1.60641
 Alpha virt. eigenvalues --    1.65009   1.66419   1.67735   1.69880   1.71915
 Alpha virt. eigenvalues --    1.73230   1.73684   1.74192   1.74289   1.75411
 Alpha virt. eigenvalues --    1.76944   1.78528   1.79020   1.83089   1.84529
 Alpha virt. eigenvalues --    1.85242   1.85922   1.87680   1.88339   1.88636
 Alpha virt. eigenvalues --    1.89598   1.90762   1.91055   1.91698   1.92289
 Alpha virt. eigenvalues --    1.93160   1.95066   1.96673   1.98221   1.99344
 Alpha virt. eigenvalues --    2.01714   2.03082   2.03834   2.04510   2.05465
 Alpha virt. eigenvalues --    2.07119   2.09461   2.09838   2.11164   2.12047
 Alpha virt. eigenvalues --    2.12706   2.13340   2.13615   2.14389   2.15505
 Alpha virt. eigenvalues --    2.18028   2.19832   2.20281   2.20948   2.23205
 Alpha virt. eigenvalues --    2.26405   2.28179   2.30138   2.30746   2.31864
 Alpha virt. eigenvalues --    2.35938   2.36910   2.37877   2.39926   2.40987
 Alpha virt. eigenvalues --    2.42042   2.46082   2.49917   2.50637   2.55406
 Alpha virt. eigenvalues --    2.56215   2.61255   2.63192   2.65119   2.66442
 Alpha virt. eigenvalues --    2.69059   2.71509   2.71605   2.75144   2.77513
 Alpha virt. eigenvalues --    2.78874   2.80036   2.80372   2.82341   2.87482
 Alpha virt. eigenvalues --    2.92593   2.97862   2.99554   3.09645   3.13084
 Alpha virt. eigenvalues --    3.18956   3.22371   3.26622   3.28091   3.31417
 Alpha virt. eigenvalues --    3.37034   4.17453   4.24649   4.26050   4.29262
 Alpha virt. eigenvalues --    4.31905   4.34055   4.37485   4.41313   4.43513
 Alpha virt. eigenvalues --    4.45576   4.47785   4.49164   4.58714   4.62241
 Alpha virt. eigenvalues --    4.70669   4.77543   5.56705   6.04817   6.89444
          Condensed to atoms (all electrons):
               1          2          3          4          5          6
     1  C   12.844243  -1.199907  -0.385250   0.900255  -0.156700  -3.308439
     2  C   -1.199907  27.248428  -3.736556  -7.487756   1.117510 -10.251206
     3  C   -0.385250  -3.736556  13.638774  -1.809846  -3.712982   2.393847
     4  C    0.900255  -7.487756  -1.809846  22.645603   0.398918  -6.687618
     5  C   -0.156700   1.117510  -3.712982   0.398918  13.219644  -4.165704
     6  C   -3.308439 -10.251206   2.393847  -6.687618  -4.165704  26.982162
     7  N    0.003549   0.397840   0.601366  -1.269989  -0.168859   0.174612
     8  C   -0.167503   0.024600  -0.118211  -0.310875   0.000744  -0.032597
     9  N   -0.008279   0.027961   0.060977  -0.110506   0.062968   0.020265
    10  O   -0.051515   0.023062  -0.145653   0.040461   0.052207   0.040316
    11  C   -0.005288   0.000340  -0.029545  -0.092128  -0.041074  -0.016757
    12  C   -0.000007  -0.002530  -0.001912   0.010393  -0.004001  -0.000072
    13  C    0.000031  -0.000012  -0.000239  -0.004817  -0.000201  -0.000079
    14  H   -0.005370  -0.003358  -0.062748  -0.024724   0.076900   0.012548
    15  H   -0.000070  -0.001328  -0.001881   0.019979  -0.005928  -0.000669
    16  H   -0.000014  -0.000302  -0.006809  -0.003247   0.008701   0.000425
    17  H   -0.000090   0.000024   0.003108   0.010319  -0.011248  -0.000575
    18  H    0.000001  -0.000016  -0.000360  -0.000590   0.000971   0.000064
    19  H   -0.000003   0.000057   0.000851  -0.000178  -0.000787  -0.000042
    20  H   -0.000000   0.000001   0.000026   0.000044  -0.000047  -0.000003
    21  H   -0.000000   0.000000   0.000003  -0.000022  -0.000001   0.000000
    22  H    0.000000  -0.000001  -0.000006   0.000054   0.000008   0.000001
    23  H    0.156765  -0.008548   0.032662   0.019979  -0.019151   0.114813
    24  H    0.076466   0.033894  -0.019656   0.051055   0.066126   0.088246
    25  C   -1.540029   0.135848  -0.310021  -1.019651  -0.462754   0.864376
    26  F   -0.081086  -0.040672   0.013640   0.045655   0.120508  -0.052498
    27  F    0.228212  -0.250693   0.019966   0.025677  -0.008584  -0.009643
    28  F    0.066676  -0.178984   0.082531   0.050555   0.016316  -0.033132
    29  Cl  -0.123821   0.072869   0.178834  -0.075016  -0.395320   0.050053
    30  Cl  -0.005031  -0.364077  -0.232828   0.326745   0.100651   0.030467
               7          8          9         10         11         12
     1  C    0.003549  -0.167503  -0.008279  -0.051515  -0.005288  -0.000007
     2  C    0.397840   0.024600   0.027961   0.023062   0.000340  -0.002530
     3  C    0.601366  -0.118211   0.060977  -0.145653  -0.029545  -0.001912
     4  C   -1.269989  -0.310875  -0.110506   0.040461  -0.092128   0.010393
     5  C   -0.168859   0.000744   0.062968   0.052207  -0.041074  -0.004001
     6  C    0.174612  -0.032597   0.020265   0.040316  -0.016757  -0.000072
     7  N    8.278512   0.198328  -0.436377  -0.229377  -0.009880   0.001450
     8  C    0.198328   5.581551   0.134575   0.735154  -0.474636   0.102002
     9  N   -0.436377   0.134575   7.674736  -0.162407   0.296818  -0.086118
    10  O   -0.229377   0.735154  -0.162407   8.231079  -0.029851   0.011415
    11  C   -0.009880  -0.474636   0.296818  -0.029851   6.304447  -0.300579
    12  C    0.001450   0.102002  -0.086118   0.011415  -0.300579   6.068853
    13  C    0.005202  -0.021558   0.000837  -0.000105  -0.034645   0.001102
    14  H    0.219989  -0.013242   0.020836   0.005850   0.004362  -0.000471
    15  H    0.023358   0.015278   0.253845   0.006084  -0.054526  -0.004146
    16  H    0.003007   0.000520  -0.055278   0.001234   0.406099  -0.046226
    17  H   -0.003738  -0.013621  -0.049409   0.000545   0.422689  -0.048574
    18  H    0.000660   0.006302   0.007869  -0.000175  -0.092931   0.427833
    19  H   -0.000225   0.000763   0.007566  -0.000155  -0.082437   0.425740
    20  H    0.000036   0.003081   0.000835  -0.000037  -0.010902  -0.057157
    21  H    0.000013  -0.001104   0.000556   0.000006   0.027984  -0.082361
    22  H    0.000044   0.002636   0.000896  -0.000038  -0.008953  -0.062994
    23  H   -0.000832  -0.000374  -0.000008  -0.000009  -0.000008  -0.000000
    24  H   -0.000448  -0.000979  -0.000014  -0.000052   0.000000  -0.000001
    25  C    0.049475  -0.033605  -0.000962  -0.004910  -0.000414  -0.000009
    26  F   -0.000066   0.000286  -0.000000  -0.000002   0.000002   0.000000
    27  F    0.000087  -0.000705  -0.000000   0.000001  -0.000005   0.000000
    28  F   -0.000043   0.000624  -0.000003  -0.000001   0.000007   0.000000
    29  Cl   0.018899   0.035486  -0.004296   0.001769   0.005809  -0.000637
    30  Cl  -0.114205   0.038396  -0.000121   0.016582  -0.003433   0.000759
              13         14         15         16         17         18
     1  C    0.000031  -0.005370  -0.000070  -0.000014  -0.000090   0.000001
     2  C   -0.000012  -0.003358  -0.001328  -0.000302   0.000024  -0.000016
     3  C   -0.000239  -0.062748  -0.001881  -0.006809   0.003108  -0.000360
     4  C   -0.004817  -0.024724   0.019979  -0.003247   0.010319  -0.000590
     5  C   -0.000201   0.076900  -0.005928   0.008701  -0.011248   0.000971
     6  C   -0.000079   0.012548  -0.000669   0.000425  -0.000575   0.000064
     7  N    0.005202   0.219989   0.023358   0.003007  -0.003738   0.000660
     8  C   -0.021558  -0.013242   0.015278   0.000520  -0.013621   0.006302
     9  N    0.000837   0.020836   0.253845  -0.055278  -0.049409   0.007869
    10  O   -0.000105   0.005850   0.006084   0.001234   0.000545  -0.000175
    11  C   -0.034645   0.004362  -0.054526   0.406099   0.422689  -0.092931
    12  C    0.001102  -0.000471  -0.004146  -0.046226  -0.048574   0.427833
    13  C    5.604100  -0.000029  -0.000044   0.004394   0.002676  -0.033870
    14  H   -0.000029   0.301519   0.001896   0.000011  -0.000004   0.000003
    15  H   -0.000044   0.001896   0.304691   0.002533   0.002366   0.001041
    16  H    0.004394   0.000011   0.002533   0.488800  -0.038168   0.004013
    17  H    0.002676  -0.000004   0.002366  -0.038168   0.485037  -0.005664
    18  H   -0.033870   0.000003   0.001041   0.004013  -0.005664   0.500197
    19  H   -0.036206   0.000002   0.000853  -0.005649   0.004038  -0.036577
    20  H    0.411378   0.000000   0.000001  -0.000353   0.002556  -0.004686
    21  H    0.409298  -0.000000  -0.000004  -0.000052  -0.000058  -0.002861
    22  H    0.415752  -0.000000   0.000002   0.002491  -0.000328   0.003837
    23  H   -0.000000  -0.000002  -0.000000  -0.000000   0.000000  -0.000000
    24  H    0.000000   0.000002  -0.000000   0.000000  -0.000000   0.000000
    25  C    0.000006  -0.000329  -0.000013  -0.000001  -0.000001   0.000000
    26  F    0.000000   0.000000  -0.000000  -0.000000  -0.000000   0.000000
    27  F   -0.000000  -0.000000  -0.000000   0.000000  -0.000000   0.000000
    28  F    0.000000   0.000000  -0.000000  -0.000000   0.000000  -0.000000
    29  Cl   0.000168   0.000425  -0.000040  -0.000371   0.001207  -0.000012
    30  Cl  -0.000096   0.013487   0.000393   0.000166  -0.000025   0.000004
              19         20         21         22         23         24
     1  C   -0.000003  -0.000000  -0.000000   0.000000   0.156765   0.076466
     2  C    0.000057   0.000001   0.000000  -0.000001  -0.008548   0.033894
     3  C    0.000851   0.000026   0.000003  -0.000006   0.032662  -0.019656
     4  C   -0.000178   0.000044  -0.000022   0.000054   0.019979   0.051055
     5  C   -0.000787  -0.000047  -0.000001   0.000008  -0.019151   0.066126
     6  C   -0.000042  -0.000003   0.000000   0.000001   0.114813   0.088246
     7  N   -0.000225   0.000036   0.000013   0.000044  -0.000832  -0.000448
     8  C    0.000763   0.003081  -0.001104   0.002636  -0.000374  -0.000979
     9  N    0.007566   0.000835   0.000556   0.000896  -0.000008  -0.000014
    10  O   -0.000155  -0.000037   0.000006  -0.000038  -0.000009  -0.000052
    11  C   -0.082437  -0.010902   0.027984  -0.008953  -0.000008   0.000000
    12  C    0.425740  -0.057157  -0.082361  -0.062994  -0.000000  -0.000001
    13  C   -0.036206   0.411378   0.409298   0.415752  -0.000000   0.000000
    14  H    0.000002   0.000000  -0.000000  -0.000000  -0.000002   0.000002
    15  H    0.000853   0.000001  -0.000004   0.000002  -0.000000  -0.000000
    16  H   -0.005649  -0.000353  -0.000052   0.002491  -0.000000   0.000000
    17  H    0.004038   0.002556  -0.000058  -0.000328   0.000000  -0.000000
    18  H   -0.036577  -0.004686  -0.002861   0.003837  -0.000000   0.000000
    19  H    0.503487   0.003863  -0.002823  -0.004757   0.000000  -0.000000
    20  H    0.003863   0.486414  -0.024861  -0.029882   0.000000  -0.000000
    21  H   -0.002823  -0.024861   0.482804  -0.024935  -0.000000  -0.000000
    22  H   -0.004757  -0.029882  -0.024935   0.487028  -0.000000   0.000000
    23  H    0.000000   0.000000  -0.000000  -0.000000   0.419151  -0.000106
    24  H   -0.000000  -0.000000  -0.000000   0.000000  -0.000106   0.416844
    25  C   -0.000000   0.000000  -0.000000   0.000000   0.007445   0.005669
    26  F   -0.000000  -0.000000  -0.000000   0.000000   0.000354   0.007147
    27  F   -0.000000   0.000000  -0.000000   0.000000  -0.000140  -0.000040
    28  F   -0.000000   0.000000  -0.000000   0.000000   0.001325   0.000058
    29  Cl   0.000024   0.000009   0.000000   0.000000   0.000464  -0.002011
    30  Cl  -0.000030  -0.000000   0.000000   0.000000  -0.000301   0.000343
              25         26         27         28         29         30
     1  C   -1.540029  -0.081086   0.228212   0.066676  -0.123821  -0.005031
     2  C    0.135848  -0.040672  -0.250693  -0.178984   0.072869  -0.364077
     3  C   -0.310021   0.013640   0.019966   0.082531   0.178834  -0.232828
     4  C   -1.019651   0.045655   0.025677   0.050555  -0.075016   0.326745
     5  C   -0.462754   0.120508  -0.008584   0.016316  -0.395320   0.100651
     6  C    0.864376  -0.052498  -0.009643  -0.033132   0.050053   0.030467
     7  N    0.049475  -0.000066   0.000087  -0.000043   0.018899  -0.114205
     8  C   -0.033605   0.000286  -0.000705   0.000624   0.035486   0.038396
     9  N   -0.000962  -0.000000  -0.000000  -0.000003  -0.004296  -0.000121
    10  O   -0.004910  -0.000002   0.000001  -0.000001   0.001769   0.016582
    11  C   -0.000414   0.000002  -0.000005   0.000007   0.005809  -0.003433
    12  C   -0.000009   0.000000   0.000000   0.000000  -0.000637   0.000759
    13  C    0.000006   0.000000  -0.000000   0.000000   0.000168  -0.000096
    14  H   -0.000329   0.000000  -0.000000   0.000000   0.000425   0.013487
    15  H   -0.000013  -0.000000  -0.000000  -0.000000  -0.000040   0.000393
    16  H   -0.000001  -0.000000   0.000000  -0.000000  -0.000371   0.000166
    17  H   -0.000001  -0.000000  -0.000000   0.000000   0.001207  -0.000025
    18  H    0.000000   0.000000   0.000000  -0.000000  -0.000012   0.000004
    19  H   -0.000000  -0.000000  -0.000000  -0.000000   0.000024  -0.000030
    20  H    0.000000  -0.000000   0.000000   0.000000   0.000009  -0.000000
    21  H   -0.000000  -0.000000  -0.000000  -0.000000   0.000000   0.000000
    22  H    0.000000   0.000000   0.000000   0.000000   0.000000   0.000000
    23  H    0.007445   0.000354  -0.000140   0.001325   0.000464  -0.000301
    24  H    0.005669   0.007147  -0.000040   0.000058  -0.002011   0.000343
    25  C    6.555726   0.102281   0.132916   0.121649  -0.000224  -0.068637
    26  F    0.102281   9.300851  -0.045136  -0.041052  -0.000619  -0.000030
    27  F    0.132916  -0.045136   9.234547  -0.059735  -0.000454  -0.000868
    28  F    0.121649  -0.041052  -0.059735   9.248388  -0.000106  -0.000234
    29  Cl  -0.000224  -0.000619  -0.000454  -0.000106  17.020753  -0.009939
    30  Cl  -0.068637  -0.000030  -0.000868  -0.000234  -0.009939  17.027500
 Mulliken charges:
               1
     1  C   -1.237796
     2  C    0.443512
     3  C   -0.452081
     4  C    0.351269
     5  C   -0.088830
     6  C   -0.213163
     7  N   -0.742390
     8  C    0.308682
     9  N   -0.657763
    10  O   -0.541480
    11  C   -0.180563
    12  C   -0.351754
    13  C   -0.723044
    14  H    0.452446
    15  H    0.436329
    16  H    0.234075
    17  H    0.236938
    18  H    0.224947
    19  H    0.222623
    20  H    0.219685
    21  H    0.218418
    22  H    0.219144
    23  H    0.276520
    24  H    0.277457
    25  C    1.466169
    26  F   -0.329564
    27  F   -0.265403
    28  F   -0.274839
    29  Cl   0.226095
    30  Cl   0.244362
 Sum of Mulliken charges =  -0.00000
 Mulliken charges with hydrogens summed into heavy atoms:
               1
     1  C   -1.237796
     2  C    0.720033
     3  C   -0.452081
     4  C    0.351269
     5  C   -0.088830
     6  C    0.064294
     7  N   -0.289945
     8  C    0.308682
     9  N   -0.221434
    10  O   -0.541480
    11  C    0.290450
    12  C    0.095816
    13  C   -0.065797
    25  C    1.466169
    26  F   -0.329564
    27  F   -0.265403
    28  F   -0.274839
    29  Cl   0.226095
    30  Cl   0.244362
 Electronic spatial extent (au):  <R**2>=           8680.6065
 Charge=              0.0000 electrons
 Dipole moment (field-independent basis, Debye):
    X=             -4.5798    Y=              2.3372    Z=             -3.4699  Tot=              6.2030
 Quadrupole moment (field-independent basis, Debye-Ang):
   XX=           -112.2688   YY=           -122.9128   ZZ=           -127.0083
   XY=             -4.5230   XZ=              6.0105   YZ=             -0.9843
 Traceless Quadrupole moment (field-independent basis, Debye-Ang):
   XX=              8.4611   YY=             -2.1828   ZZ=             -6.2783
   XY=             -4.5230   XZ=              6.0105   YZ=             -0.9843
 Octapole moment (field-independent basis, Debye-Ang**2):
  XXX=           -129.3929  YYY=             -3.6388  ZZZ=             -1.3611  XYY=             27.7842
  XXY=             11.5172  XXZ=            -16.1592  XZZ=             12.4008  YZZ=              6.3584
  YYZ=              1.1219  XYZ=              3.7292
 Hexadecapole moment (field-independent basis, Debye-Ang**3):
 XXXX=          -8610.7522 YYYY=          -1538.0795 ZZZZ=           -454.9717 XXXY=            -22.7177
 XXXZ=             51.6697 YYYX=             -6.5105 YYYZ=              1.0930 ZZZX=             61.9840
 ZZZY=             -6.7809 XXYY=          -1704.7781 XXZZ=          -1565.6102 YYZZ=           -344.2604
 XXYZ=             -4.3468 YYXZ=             23.2780 ZZXY=            -26.8485
 N-N= 1.721212864582D+03 E-N=-7.759399194972D+03  KE= 1.820269717621D+03
 D1PCM: PCM CHGder 1st derivatives, ID1Alg=3 FixD1E=F DoIter=F DoCFld=F I1PDM=0.
 Calling FoFJK, ICntrl=      2127 FMM=F ISym2X=0 I1Cent= 0 IOpClX= 0 NMat=1 NMatS=1 NMatT=0.
 ***** Axes restored to original set *****
 -------------------------------------------------------------------
 Center     Atomic                   Forces (Hartrees/Bohr)
 Number     Number              X              Y              Z
 -------------------------------------------------------------------
      1        6          -0.000402649    0.000465531   -0.000215328
      2        6           0.000188835    0.000082471   -0.000277831
      3        6           0.000067675    0.000044025    0.000086548
      4        6          -0.000382142   -0.000809668   -0.000299948
      5        6           0.003223912    0.001073941   -0.001274189
      6        6          -0.000339951   -0.000931868    0.000735614
      7        7          -0.002414253   -0.005101315   -0.002902187
      8        6          -0.004408102    0.030877282    0.010977544
      9        7           0.006258785   -0.008570767    0.001370781
     10        8           0.001934520   -0.019809580   -0.008360330
     11        6          -0.001232784   -0.000221267   -0.000907439
     12        6          -0.000269598    0.000286469   -0.000105500
     13        6           0.000223614   -0.000648387   -0.000168731
     14        1          -0.001898647    0.002416612   -0.000210186
     15        1           0.001389438    0.002026477    0.000453672
     16        1          -0.000311870    0.000543270   -0.000334829
     17        1          -0.000765499    0.000274496    0.000019170
     18        1           0.000541402   -0.000211033   -0.000390533
     19        1           0.000052991   -0.000636264    0.000471038
     20        1           0.000062732   -0.000146377    0.000208404
     21        1           0.000195214    0.000209391    0.000224877
     22        1           0.000273234    0.000029729   -0.000067198
     23        1           0.000251019    0.000211635    0.000126080
     24        1           0.000049863   -0.000113058    0.000301223
     25        6          -0.003070835    0.001520782   -0.000092682
     26        9           0.000858160   -0.000492537   -0.000021875
     27        9           0.000786304   -0.000219014    0.000354754
     28        9           0.000950311   -0.000806265   -0.000351745
     29       17          -0.001664278   -0.000549398    0.000642470
     30       17          -0.000147401   -0.000795312    0.000008355
 -------------------------------------------------------------------
 Cartesian Forces:  Max     0.030877282 RMS     0.004436285

 GradGradGradGradGradGradGradGradGradGradGradGradGradGradGradGradGradGrad
 Berny optimization.
 FormGI is forming the generalized inverse of G from B-inverse, IUseBI=4.
 GSVD:  received Info=                   1 from GESDD.
 Internal  Forces:  Max     0.021574688 RMS     0.002101084
 Search for a local minimum.
 Step number   1 out of a maximum of  157
 All quantities printed in internal units (Hartrees-Bohrs-Radians)
 Mixed Optimization -- RFO/linear search
 Second derivative matrix not updated -- first step.
 ITU=  0
     Eigenvalues ---    0.00433   0.00490   0.00742   0.00918   0.01529
     Eigenvalues ---    0.01638   0.01670   0.01791   0.01945   0.02084
     Eigenvalues ---    0.02116   0.02141   0.02160   0.02200   0.02219
     Eigenvalues ---    0.02228   0.02238   0.02282   0.02430   0.03769
     Eigenvalues ---    0.04490   0.04949   0.05547   0.05575   0.05579
     Eigenvalues ---    0.08116   0.09158   0.10575   0.10823   0.12027
     Eigenvalues ---    0.12635   0.14950   0.15997   0.15998   0.15998
     Eigenvalues ---    0.16000   0.16000   0.16000   0.21895   0.21923
     Eigenvalues ---    0.22000   0.22322   0.23495   0.23498   0.24988
     Eigenvalues ---    0.24992   0.24995   0.24997   0.24999   0.24999
     Eigenvalues ---    0.25000   0.25000   0.25000   0.25000   0.29872
     Eigenvalues ---    0.30282   0.31543   0.31888   0.32185   0.34028
     Eigenvalues ---    0.34029   0.34092   0.34117   0.34179   0.34180
     Eigenvalues ---    0.34359   0.35297   0.35459   0.37152   0.42187
     Eigenvalues ---    0.42681   0.44944   0.45250   0.45344   0.45839
     Eigenvalues ---    0.46383   0.46891   0.47303   0.47730   0.55279
     Eigenvalues ---    0.55717   0.56278   0.56962   0.87753
 RFO step:  Lambda=-1.15059293D-03 EMin= 4.32756743D-03
 Linear search not attempted -- first point.
 Iteration  1 RMS(Cart)=  0.02479403 RMS(Int)=  0.00022736
 Iteration  2 RMS(Cart)=  0.00036393 RMS(Int)=  0.00002429
 Iteration  3 RMS(Cart)=  0.00000008 RMS(Int)=  0.00002428
 Variable       Old X    -DE/DX   Delta X   Delta X   Delta X     New X
                                 (Linear)    (Quad)   (Total)
    R1        2.63032  -0.00019   0.00000  -0.00045  -0.00045   2.62988
    R2        2.62475   0.00008   0.00000   0.00013   0.00013   2.62489
    R3        2.83807   0.00043   0.00000   0.00134   0.00134   2.83941
    R4        2.61979   0.00002   0.00000   0.00006   0.00006   2.61984
    R5        2.05196  -0.00024   0.00000  -0.00067  -0.00067   2.05129
    R6        2.65242   0.00020   0.00000   0.00049   0.00049   2.65291
    R7        3.28688   0.00065   0.00000   0.00204   0.00204   3.28892
    R8        2.64836   0.00010   0.00000   0.00024   0.00024   2.64860
    R9        2.64878  -0.00091   0.00000  -0.00201  -0.00201   2.64677
   R10        2.62673   0.00033   0.00000   0.00069   0.00068   2.62741
   R11        3.28049  -0.00186   0.00000  -0.00581  -0.00581   3.27468
   R12        2.04936  -0.00027   0.00000  -0.00075  -0.00075   2.04861
   R13        2.63139   0.00636   0.00000   0.01354   0.01354   2.64492
   R14        1.92041  -0.00229   0.00000  -0.00508  -0.00508   1.91532
   R15        2.54013   0.00936   0.00000   0.01660   0.01660   2.55673
   R16        2.33986  -0.02157   0.00000  -0.02455  -0.02455   2.31531
   R17        2.75618  -0.00171   0.00000  -0.00459  -0.00459   2.75159
   R18        1.91687  -0.00198   0.00000  -0.00436  -0.00436   1.91251
   R19        2.87405   0.00157   0.00000   0.00517   0.00517   2.87922
   R20        2.07175  -0.00006   0.00000  -0.00017  -0.00017   2.07158
   R21        2.07133  -0.00010   0.00000  -0.00030  -0.00030   2.07103
   R22        2.88219   0.00052   0.00000   0.00173   0.00173   2.88392
   R23        2.07281   0.00060   0.00000   0.00175   0.00175   2.07456
   R24        2.07283   0.00067   0.00000   0.00197   0.00197   2.07480
   R25        2.07028  -0.00017   0.00000  -0.00048  -0.00048   2.06980
   R26        2.06729   0.00000   0.00000   0.00001   0.00001   2.06730
   R27        2.07027  -0.00015   0.00000  -0.00044  -0.00044   2.06983
   R28        2.53429  -0.00029   0.00000  -0.00050  -0.00050   2.53379
   R29        2.54885  -0.00056   0.00000  -0.00101  -0.00101   2.54783
   R30        2.54500  -0.00095   0.00000  -0.00170  -0.00170   2.54330
    A1        2.11906  -0.00054   0.00000  -0.00240  -0.00240   2.11666
    A2        2.06198   0.00007   0.00000   0.00039   0.00039   2.06237
    A3        2.10188   0.00046   0.00000   0.00195   0.00195   2.10383
    A4        2.06963   0.00023   0.00000   0.00087   0.00087   2.07051
    A5        2.11361  -0.00010   0.00000  -0.00033  -0.00034   2.11328
    A6        2.09980  -0.00014   0.00000  -0.00056  -0.00056   2.09924
    A7        2.13104  -0.00010   0.00000  -0.00040  -0.00042   2.13062
    A8        2.07419  -0.00004   0.00000  -0.00012  -0.00014   2.07405
    A9        2.07790   0.00015   0.00000   0.00064   0.00062   2.07851
   A10        2.04656   0.00045   0.00000   0.00182   0.00182   2.04838
   A11        2.12188  -0.00058   0.00000  -0.00230  -0.00231   2.11957
   A12        2.11455   0.00014   0.00000   0.00057   0.00056   2.11511
   A13        2.12719  -0.00098   0.00000  -0.00394  -0.00394   2.12325
   A14        2.08780   0.00065   0.00000   0.00265   0.00265   2.09045
   A15        2.06781   0.00032   0.00000   0.00134   0.00134   2.06915
   A16        2.07250   0.00093   0.00000   0.00398   0.00398   2.07648
   A17        2.11536  -0.00043   0.00000  -0.00178  -0.00178   2.11359
   A18        2.09520  -0.00050   0.00000  -0.00219  -0.00219   2.09301
   A19        2.09631   0.00018   0.00000   0.00009   0.00008   2.09640
   A20        2.03742  -0.00205   0.00000  -0.01457  -0.01457   2.02286
   A21        2.03540   0.00179   0.00000   0.01089   0.01087   2.04627
   A22        2.00675  -0.00163   0.00000  -0.00654  -0.00658   2.00017
   A23        2.12499   0.00054   0.00000   0.00210   0.00205   2.12704
   A24        2.15140   0.00109   0.00000   0.00428   0.00423   2.15563
   A25        2.11870  -0.00095   0.00000  -0.00418  -0.00430   2.11439
   A26        2.08955   0.00153   0.00000   0.00889   0.00877   2.09832
   A27        2.07476  -0.00057   0.00000  -0.00421  -0.00433   2.07043
   A28        1.92497  -0.00022   0.00000  -0.00046  -0.00046   1.92451
   A29        1.90692  -0.00015   0.00000  -0.00180  -0.00181   1.90511
   A30        1.90843  -0.00042   0.00000  -0.00524  -0.00524   1.90319
   A31        1.92333   0.00049   0.00000   0.00552   0.00552   1.92885
   A32        1.92238   0.00062   0.00000   0.00545   0.00545   1.92782
   A33        1.87711  -0.00035   0.00000  -0.00367  -0.00370   1.87341
   A34        1.93916   0.00109   0.00000   0.00539   0.00539   1.94455
   A35        1.90587  -0.00011   0.00000   0.00138   0.00139   1.90726
   A36        1.90621  -0.00010   0.00000   0.00167   0.00167   1.90789
   A37        1.92034  -0.00056   0.00000  -0.00418  -0.00419   1.91615
   A38        1.91992  -0.00055   0.00000  -0.00392  -0.00393   1.91599
   A39        1.87099   0.00020   0.00000  -0.00048  -0.00050   1.87049
   A40        1.93642   0.00015   0.00000   0.00078   0.00078   1.93720
   A41        1.93678   0.00043   0.00000   0.00278   0.00277   1.93956
   A42        1.93610   0.00022   0.00000   0.00134   0.00134   1.93743
   A43        1.88405  -0.00030   0.00000  -0.00182  -0.00182   1.88223
   A44        1.88413  -0.00022   0.00000  -0.00162  -0.00162   1.88251
   A45        1.88423  -0.00031   0.00000  -0.00171  -0.00172   1.88252
   A46        1.96636  -0.00109   0.00000  -0.00410  -0.00410   1.96225
   A47        1.95046  -0.00079   0.00000  -0.00358  -0.00358   1.94687
   A48        1.95252  -0.00095   0.00000  -0.00359  -0.00360   1.94892
   A49        1.86554   0.00096   0.00000   0.00350   0.00350   1.86904
   A50        1.86911   0.00132   0.00000   0.00602   0.00602   1.87512
   A51        1.85320   0.00081   0.00000   0.00276   0.00275   1.85595
    D1        0.01949   0.00001   0.00000   0.00085   0.00085   0.02034
    D2       -3.13992  -0.00003   0.00000  -0.00048  -0.00048  -3.14041
    D3        3.13662  -0.00003   0.00000  -0.00185  -0.00184   3.13477
    D4       -0.02279  -0.00006   0.00000  -0.00318  -0.00318  -0.02597
    D5        0.00181   0.00003   0.00000   0.00077   0.00078   0.00259
    D6        3.12689   0.00005   0.00000   0.00172   0.00173   3.12861
    D7       -3.11476   0.00008   0.00000   0.00356   0.00356  -3.11120
    D8        0.01032   0.00010   0.00000   0.00451   0.00451   0.01483
    D9        3.00495   0.00013   0.00000   0.00089   0.00089   3.00584
   D10       -1.17741   0.00003   0.00000  -0.00004  -0.00004  -1.17745
   D11        0.89801  -0.00012   0.00000  -0.00140  -0.00139   0.89662
   D12       -0.16086   0.00008   0.00000  -0.00185  -0.00185  -0.16271
   D13        1.93997  -0.00002   0.00000  -0.00278  -0.00278   1.93719
   D14       -2.26779  -0.00017   0.00000  -0.00413  -0.00413  -2.27193
   D15       -0.02117   0.00001   0.00000   0.00067   0.00066  -0.02051
   D16        3.10871   0.00028   0.00000   0.01249   0.01248   3.12119
   D17        3.13809   0.00005   0.00000   0.00199   0.00199   3.14008
   D18       -0.01521   0.00032   0.00000   0.01381   0.01381  -0.00140
   D19        0.00152  -0.00009   0.00000  -0.00369  -0.00370  -0.00218
   D20       -3.11877  -0.00017   0.00000  -0.00796  -0.00796  -3.12673
   D21       -3.12833  -0.00035   0.00000  -0.01554  -0.01554   3.13931
   D22        0.03456  -0.00044   0.00000  -0.01981  -0.01981   0.01476
   D23        0.02078   0.00011   0.00000   0.00529   0.00528   0.02607
   D24       -3.09037   0.00008   0.00000   0.00349   0.00349  -3.08689
   D25        3.14117   0.00019   0.00000   0.00950   0.00950  -3.13252
   D26        0.03001   0.00016   0.00000   0.00770   0.00771   0.03772
   D27       -1.93837  -0.00065   0.00000  -0.02474  -0.02477  -1.96314
   D28        0.69187  -0.00030   0.00000  -0.02915  -0.02913   0.66274
   D29        1.22535  -0.00074   0.00000  -0.02919  -0.02921   1.19614
   D30       -2.42759  -0.00039   0.00000  -0.03360  -0.03357  -2.46117
   D31       -0.02254  -0.00009   0.00000  -0.00393  -0.00393  -0.02646
   D32        3.13537  -0.00011   0.00000  -0.00487  -0.00487   3.13050
   D33        3.08895  -0.00005   0.00000  -0.00213  -0.00213   3.08683
   D34       -0.03632  -0.00007   0.00000  -0.00307  -0.00307  -0.03939
   D35        3.08585  -0.00025   0.00000  -0.00138  -0.00141   3.08444
   D36       -0.06582  -0.00063   0.00000  -0.01849  -0.01851  -0.08432
   D37        0.45504   0.00048   0.00000   0.01020   0.01021   0.46525
   D38       -2.69663   0.00010   0.00000  -0.00691  -0.00689  -2.70351
   D39       -3.09948  -0.00016   0.00000  -0.01262  -0.01269  -3.11217
   D40        0.02205   0.00031   0.00000   0.01646   0.01651   0.03856
   D41        0.05236   0.00023   0.00000   0.00479   0.00474   0.05709
   D42       -3.10930   0.00070   0.00000   0.03387   0.03394  -3.07536
   D43        3.11457   0.00023   0.00000   0.01408   0.01403   3.12860
   D44        0.99794  -0.00015   0.00000   0.00868   0.00864   1.00659
   D45       -1.05219   0.00060   0.00000   0.01717   0.01712  -1.03507
   D46       -0.00712  -0.00025   0.00000  -0.01491  -0.01486  -0.02199
   D47       -2.12375  -0.00063   0.00000  -0.02030  -0.02025  -2.14400
   D48        2.10930   0.00012   0.00000  -0.01181  -0.01178   2.09753
   D49       -3.13522  -0.00012   0.00000  -0.00625  -0.00625  -3.14147
   D50        1.02667  -0.00005   0.00000  -0.00541  -0.00542   1.02126
   D51       -1.01422  -0.00017   0.00000  -0.00656  -0.00656  -1.02078
   D52       -1.02839  -0.00012   0.00000  -0.00521  -0.00521  -1.03360
   D53        3.13351  -0.00005   0.00000  -0.00438  -0.00438   3.12912
   D54        1.09261  -0.00017   0.00000  -0.00553  -0.00553   1.08708
   D55        1.03987   0.00014   0.00000  -0.00295  -0.00295   1.03692
   D56       -1.08143   0.00021   0.00000  -0.00212  -0.00212  -1.08355
   D57       -3.12232   0.00009   0.00000  -0.00327  -0.00326  -3.12559
   D58       -1.04259   0.00001   0.00000  -0.00068  -0.00068  -1.04327
   D59       -3.13710   0.00001   0.00000  -0.00076  -0.00076  -3.13785
   D60        1.05157  -0.00002   0.00000  -0.00132  -0.00132   1.05024
   D61        1.07023   0.00022   0.00000   0.00180   0.00179   1.07202
   D62       -1.02428   0.00021   0.00000   0.00172   0.00172  -1.02256
   D63       -3.11880   0.00018   0.00000   0.00116   0.00115  -3.11766
   D64        3.12764  -0.00021   0.00000  -0.00370  -0.00369   3.12395
   D65        1.03313  -0.00021   0.00000  -0.00377  -0.00376   1.02937
   D66       -1.06139  -0.00025   0.00000  -0.00434  -0.00433  -1.06572
         Item               Value     Threshold  Converged?
 Maximum Force            0.021575     0.000450     NO 
 RMS     Force            0.002101     0.000300     NO 
 Maximum Displacement     0.087996     0.001800     NO 
 RMS     Displacement     0.024766     0.001200     NO 
 Predicted change in Energy=-5.813114D-04
 GradGradGradGradGradGradGradGradGradGradGradGradGradGradGradGradGradGrad

                          Input orientation:                          
 ---------------------------------------------------------------------
 Center     Atomic      Atomic             Coordinates (Angstroms)
 Number     Number       Type             X           Y           Z
 ---------------------------------------------------------------------
      1          6           0       -4.100441    3.502432   -1.018063
      2          6           0       -4.170221    2.358933   -0.227943
      3          6           0       -2.997255    1.679082    0.061804
      4          6           0       -1.752195    2.094828   -0.435991
      5          6           0       -1.732243    3.235451   -1.250245
      6          6           0       -2.890595    3.950742   -1.532548
      7          7           0       -0.577644    1.387793   -0.149208
      8          6           0        0.410318    1.964899    0.656927
      9          7           0        1.465220    1.159214    0.918787
     10          8           0        0.324321    3.118937    1.059341
     11          6           0        2.557735    1.602669    1.773143
     12          6           0        3.598822    0.499180    1.914074
     13          6           0        4.757360    0.936765    2.805874
     14          1           0       -0.662806    0.378065   -0.127523
     15          1           0        1.511689    0.232890    0.513791
     16          1           0        2.156723    1.880163    2.754932
     17          1           0        3.009114    2.501886    1.338678
     18          1           0        3.976989    0.228519    0.919631
     19          1           0        3.123739   -0.396660    2.335063
     20          1           0        5.257544    1.819958    2.394230
     21          1           0        5.503711    0.142589    2.900780
     22          1           0        4.405033    1.188615    3.811922
     23          1           0       -5.117567    2.010789    0.171596
     24          1           0       -2.841204    4.835131   -2.157559
     25          6           0       -5.379084    4.226005   -1.332976
     26          9           0       -5.165827    5.394198   -1.955594
     27          9           0       -6.179756    3.491835   -2.131545
     28          9           0       -6.089905    4.486010   -0.220114
     29         17           0       -0.242040    3.756746   -1.964695
     30         17           0       -3.074454    0.265959    1.074811
 ---------------------------------------------------------------------
                    Distance matrix (angstroms):
                    1          2          3          4          5
     1  C    0.000000
     2  C    1.391672   0.000000
     3  C    2.389087   1.386362   0.000000
     4  C    2.799003   2.441288   1.403858   0.000000
     5  C    2.394483   2.785161   2.396667   1.401580   0.000000
     6  C    1.389029   2.423488   2.777368   2.437788   1.390366
     7  N    4.199607   3.722354   2.446199   1.400611   2.441151
     8  C    5.051390   4.681837   3.470939   2.426482   3.137224
     9  N    6.341816   5.874735   4.573660   3.614216   4.386254
    10  O    4.903182   4.736625   3.755147   2.756218   3.094708
    11  C    7.465336   7.059863   5.813126   4.868059   5.496432
    12  C    8.769014   8.270728   6.952072   6.058241   6.776455
    13  C    9.983275   9.535634   8.259238   7.363770   7.990682
    14  H    4.729911   4.029377   2.679205   2.056500   3.250977
    15  H    6.673267   6.111819   4.756716   3.875802   4.759232
    16  H    7.484607   7.011204   5.818665   5.050516   5.744763
    17  H    7.556526   7.349666   6.195473   5.097569   5.451706
    18  H    8.928496   8.498978   7.174962   6.176113   6.807740
    19  H    8.867646   8.207566   6.851495   6.136855   7.044659
    20  H   10.101799   9.800461   8.579147   7.564532   8.008928
    21  H   10.903467  10.406058   9.093240   8.221523   8.896956
    22  H   10.051148   9.551184   8.312509   7.535081   8.214695
    23  H    2.162136   1.085495   2.148908   3.420811   3.870639
    24  H    2.158752   3.408996   3.861420   3.414527   2.147555
    25  C    1.502550   2.483628   3.755707   4.301258   3.779880
    26  F    2.364908   3.631645   4.751283   4.984769   4.116699
    27  F    2.358709   2.990886   4.269094   4.942654   4.541233
    28  F    2.358414   2.865258   4.186025   4.957830   4.649117
    29  Cl   3.980959   4.516723   4.001823   2.716519   1.732885
    30  Cl   3.988424   2.697853   1.740419   2.715816   4.003161
                    6          7          8          9         10
     6  C    0.000000
     7  N    3.719150   0.000000
     8  C    4.430960   1.399634   0.000000
     9  N    5.724928   2.316496   1.352966   0.000000
    10  O    4.212538   2.295864   1.225209   2.271985   0.000000
    11  C    6.791564   3.684048   2.447151   1.456079   2.792261
    12  C    8.118191   4.742324   3.727641   2.445097   4.279726
    13  C    9.295009   6.115408   4.956996   3.801154   5.240619
    14  H    4.438599   1.013545   2.070024   2.496689   3.145703
    15  H    6.114739   2.477637   2.057514   1.012057   3.168081
    16  H    6.938675   4.019107   2.731069   2.090304   2.786985
    17  H    6.719352   4.039782   2.739868   2.088704   2.768916
    18  H    8.187297   4.819857   3.975571   2.678652   4.660045
    19  H    8.368425   4.801678   3.969352   2.679042   4.671576
    20  H    9.292577   6.380068   5.151197   4.122528   5.273136
    21  H   10.228431   6.916346   5.856478   4.612074   6.251049
[...]
 -0.00000010,-0.00000258,-0.00009740,0.00041632,0.00013643,-0.01023014,
 -0.15588411,0.12246245,-0.18925894,0.05328661,-0.02102396,0.00645172,0
 .00971746,-0.00616141,0.00752408,0.00134387,0.00066547,-0.00636536,0.0
 0040076,0.00020978,-0.00432051,-0.00486008,0.00325222,-0.02424487,0.00
 997343,-0.00341948,0.00800075,-0.00175171,0.00253556,-0.00684458,-0.00
 228984,-0.00228784,0.00265387,-0.00105021,0.00142165,0.00160779,0.0012
 1875,0.00113288,-0.00067952,-0.00040504,-0.00074727,0.00009074,0.00026
 765,0.00006177,0.00003503,-0.00016492,-0.00001940,0.00080108,0.0003961
 9,-0.00074562,-0.00012461,0.00040104,-0.00003937,0.00003095,0.00004588
 ,0.00002259,0.00024159,0.00010689,0.00010007,-0.00000470,-0.00002992,-
 0.00001376,-0.00002466,-0.00001642,-0.00001302,-0.00000372,0.00003180,
 -0.00000765,0.00009741,-0.00002787,0.00005522,-0.00001504,0.00003477,0
 .00001131,0.00006331,-0.00247794,0.00091303,-0.00011624,0.00008331,-0.
 00028124,0.59663242,0.05720174,-0.11673146,0.02502306,0.02366597,-0.01
 398516,0.00564853,-0.00097067,-0.00372168,0.00504843,0.00090616,-0.003
 11933,0.00178938,-0.00230779,0.00377796,0.00257108,-0.00190164,0.01264
 193,-0.00753333,-0.00430569,0.00037659,-0.00179661,0.00359518,0.001810
 95,0.00147404,-0.00136786,0.00033486,-0.00074458,-0.00087328,-0.001101
 59,-0.00077451,0.00038885,0.00026086,0.00038220,-0.00005999,-0.0001246
 5,-0.00003763,-0.00001113,0.00008572,0.00001187,-0.00034660,-0.0001637
 7,0.00049214,0.00010289,-0.00016783,0.00001465,-0.00001416,-0.00001482
 ,-0.00002611,-0.00014518,-0.00005951,-0.00003384,0.00001216,0.00000976
 ,-0.00000493,0.00000833,-0.00000236,0.00002132,-0.00001047,-0.00001702
 ,0.00001156,-0.00004456,0.00000649,-0.00002688,0.00000805,-0.00001375,
 -0.00001818,0.00007430,-0.00123164,-0.00043826,-0.00298063,-0.00190046
 ,-0.00035926,-0.03512625,0.56995081,-0.02108335,0.02446074,-0.08006886
 ,-0.01490966,0.00516101,-0.00377368,0.00029324,0.00595986,0.00279977,-
 0.00004368,0.00146317,-0.00155627,0.00328045,0.00174602,0.00503020,0.0
 0462698,-0.00791043,0.00642262,0.00171757,-0.00050548,-0.00019214,-0.0
 0149305,0.00009562,-0.00007399,0.00064697,-0.00035521,0.00025088,0.000
 53695,-0.00008753,-0.00008771,-0.00018401,-0.00008509,-0.00012007,0.00
 000369,0.00006467,0.00002889,0.00000573,-0.00003531,0.00000232,0.00016
 332,0.00011968,-0.00002915,-0.00002525,0.00008762,0.00003927,0.0000043
 2,-0.00000004,-0.00000941,0.00006415,0.00003631,0.00001698,0.00001024,
 -0.00002214,-0.00002051,-0.00000243,0.00001063,-0.00000290,0.00000344,
 0.00001581,-0.00000425,0.00002231,-0.00001031,0.00001627,-0.00000603,0
 .00000022,-0.00001106,-0.00045409,0.00013664,-0.00209989,0.00123424,-0
 .00081106,-0.00275522,0.00725968,-0.03280434,0.52503311,0.00753842,0.0
 2676028,-0.01209219,-0.00481458,0.00066354,0.00067305,-0.00025461,0.00
 030784,-0.00055370,0.00060630,0.00013852,-0.00009971,0.00164310,0.0008
 5581,-0.00063839,-0.00312588,0.00091071,0.00029016,-0.00093859,0.00025
 247,-0.00038460,0.00094724,0.00020779,0.00040517,-0.00041363,0.0001800
 2,-0.00022342,-0.00023968,-0.00010557,-0.00018020,0.00011120,0.0000633
 9,0.00011801,-0.00001249,-0.00004132,-0.00001003,-0.00000570,0.0000259
 5,0.00000384,-0.00007601,-0.00004565,0.00000815,0.00001814,-0.00006281
 ,0.00000911,-0.00000366,-0.00000793,-0.00000331,-0.00003442,-0.0000173
 8,-0.00001504,0.00000048,0.00000464,0.00000239,0.00000407,0.00000303,0
 .00000191,0.00000117,-0.00000552,0.00000121,-0.00001620,0.00000541,-0.
 00000907,0.00000265,-0.00000611,-0.00000165,0.00012184,0.00020942,-0.0
 0003563,-0.00112443,0.00231602,-0.00113145,-0.08037576,-0.01049190,0.0
 0531129,0.09185985,-0.00425015,-0.03507719,0.01985115,0.00807760,-0.00
 064003,-0.00019930,-0.00061822,-0.00008760,0.00046019,-0.00100055,0.00
 068119,-0.00043437,-0.00048748,-0.00066202,0.00051745,-0.00325468,-0.0
 0131477,0.00117406,0.00194555,-0.00005601,0.00055640,-0.00164568,-0.00
 079685,-0.00069818,0.00064820,-0.00015039,0.00033776,0.00042630,0.0005
 0421,0.00031060,-0.00019727,-0.00012836,-0.00017007,0.00002532,0.00005
 717,0.00002250,0.00000387,-0.00003918,-0.00000550,0.00006135,0.0000630
 3,-0.00013172,-0.00005604,0.00007035,0.00000727,0.00000617,0.00000464,
 0.00001095,0.00007181,0.00003205,0.00001323,-0.00000434,-0.00000678,-0
 .00000015,-0.00000312,0.00000531,-0.00001229,0.00000709,0.00001024,-0.
 00000646,0.00002096,-0.00000390,0.00001338,-0.00000457,0.00000513,0.00
 000706,-0.00022158,0.00045850,-0.00042444,0.00164669,0.00005914,-0.000
 57784,0.00081199,-0.25682505,0.08145422,0.05176054,0.36000351,0.001712
 37,0.01976997,-0.00004867,-0.00307345,0.00099661,0.00168270,-0.0000477
 7,-0.00030388,-0.00057065,0.00065362,-0.00024529,0.00014817,0.00014693
 ,0.00017417,-0.00008278,0.00186430,0.00028280,-0.00077536,-0.00098590,
 0.00003333,-0.00021182,0.00076674,0.00026075,0.00021923,-0.00032019,0.
 00010671,-0.00014414,-0.00021286,-0.00014581,-0.00006940,0.00009325,0.
 00005526,0.00007154,-0.00000823,-0.00002896,-0.00001262,-0.00000223,0.
 00001854,0.00000084,-0.00002311,-0.00004563,0.00004744,0.00002167,-0.0
 0003594,-0.00001104,-0.00000214,-0.00000203,-0.00000121,-0.00003454,-0
 .00001650,-0.00000777,-0.00000071,0.00000656,0.00000420,0.00000188,-0.
 00000418,0.00000464,-0.00000290,-0.00000621,0.00000262,-0.00001046,0.0
 0000301,-0.00000698,0.00000234,-0.00000146,0.00000043,0.00013054,-0.00
 031642,0.00021093,-0.00071402,-0.00046639,0.00013027,0.00049009,0.0822
 4014,-0.10694002,-0.02321201,-0.12382146,0.13324777,-0.02979407,-0.017
 95427,-0.03178522,-0.00098790,-0.00226011,0.00172871,-0.00153713,-0.00
 051519,0.00158471,0.00161888,-0.00123509,0.00039010,0.00037305,0.00292
 364,0.00102815,0.00070186,0.00252001,-0.00324841,-0.00295028,0.0006877
 4,-0.00106620,0.00249978,0.00070842,0.00073851,-0.00099445,0.00042878,
 -0.00052258,-0.00061438,-0.00035190,-0.00036426,0.00024666,0.00014514,
 0.00027546,-0.00003059,-0.00010160,-0.00002449,-0.00001283,0.00006185,
 0.00000458,-0.00030578,-0.00015793,0.00026099,0.00003964,-0.00015333,0
 .00001219,-0.00001037,-0.00001649,-0.00000496,-0.00008935,-0.00004048,
 -0.00003712,-0.00000085,0.00001361,0.00000882,0.00000952,0.00000523,0.
 00000314,0.00000170,-0.00001264,0.00000237,-0.00003661,0.00001135,-0.0
 0002100,0.00000584,-0.00001219,-0.00000125,-0.00010212,-0.00003029,-0.
 00115492,0.00009451,-0.00069514,-0.00095407,-0.15669336,-0.05133223,-0
 .08447406,-0.00565463,-0.03536481,-0.00534846,0.17399666,0.00334461,0.
 00960596,0.00042175,-0.00012129,-0.00062057,0.00094138,-0.00100901,0.0
 0086943,0.00004694,0.00047038,0.00054366,-0.00052646,0.00044506,-0.000
 60048,0.00001108,-0.00051323,-0.00015849,0.00095629,0.00012755,0.00008
 032,0.00006940,-0.00012148,-0.00022674,-0.00014335,0.00002526,0.000046
 00,0.00002704,0.00002643,0.00016960,0.00008830,-0.00001765,-0.00001875
 ,-0.00001429,0.00000556,-0.00000017,0.00000051,-0.00000159,-0.00000206
 ,-0.00000164,-0.00000053,-0.00001367,-0.00004651,-0.00001392,-0.000005
 54,-0.00000244,0.00000109,-0.00000047,0.00000537,0.00000802,0.00000224
 ,-0.00000266,-0.00000371,0.00000212,0.00000461,0.00000085,0.00000098,-
 0.00000405,0.00000290,-0.00000002,-0.00000171,-0.00000016,0.00000159,-
 0.00000006,-0.00000019,0.00000052,0.00000457,0.00000483,-0.00000307,-0
 .00076373,0.00044683,-0.00000925,-0.00016373,-0.05353622,-0.11004501,-
 0.05487730,-0.04512013,-0.06252221,-0.02264429,0.09737194,0.16632789,-
 0.02069722,-0.01172457,-0.00594124,0.00025349,-0.00028577,0.00148335,-
 0.00018620,-0.00076892,0.00049962,0.00048818,-0.00091358,0.00035405,-0
 .00032910,0.00125339,0.00037549,-0.00068482,0.00227612,-0.00281556,-0.
 00135200,0.00037632,-0.00038955,0.00116663,0.00014208,0.00027409,-0.00
 050030,0.00024877,-0.00023658,-0.00033130,-0.00004245,-0.00010062,0.00
 012509,0.00006731,0.00012109,-0.00001001,-0.00005072,-0.00001606,-0.00
 000681,0.00003077,-0.00000041,-0.00012039,-0.00008539,0.00005318,0.000
 01585,-0.00007656,-0.00000489,-0.00000391,-0.00000633,0.00000214,-0.00
 004351,-0.00002210,-0.00001762,-0.00000361,0.00001046,0.00000917,0.000
 00436,-0.00000057,0.00000124,0.00000068,-0.00000815,0.00000123,-0.0000
 1836,0.00000670,-0.00001141,0.00000327,-0.00000405,0.00000340,0.000167
 31,-0.00033694,-0.00045836,0.00001167,-0.00032839,-0.00047496,-0.08464
 970,-0.05236273,-0.15282715,-0.00061164,-0.01040629,0.01618790,0.11680
 554,0.11197999,0.21633902,-0.02920577,0.00966332,0.03720967,-0.0012257
 3,-0.00194700,0.00062299,-0.00088176,-0.00195734,-0.00032833,0.0013371
 5,-0.00109462,0.00096916,-0.00068940,0.00063844,-0.00207120,-0.0002594
 0,0.00555157,-0.00122611,-0.00259541,0.00061206,-0.00093072,0.00231248
 ,0.00080226,0.00083702,-0.00089060,0.00034445,-0.00049512,-0.00054535,
 -0.00043749,-0.00045312,0.00022586,0.00013677,0.00026613,-0.00003376,-
 0.00009032,-0.00001795,-0.00001193,0.00005661,0.00000814,-0.00030769,-
 0.00012404,0.00027545,0.00004276,-0.00013814,0.00002596,-0.00001118,-0
 .00001664,-0.00001098,-0.00007897,-0.00003368,-0.00003445,0.00000358,0
 .00000724,0.00000100,0.00000852,0.00000892,0.00000401,0.00000207,-0.00
 000932,0.00000246,-0.00003326,0.00000888,-0.00001824,0.00000482,-0.000
 01346,-0.00000673,-0.00036711,0.00123684,0.00058288,0.00049881,0.00033
 004,0.00067917,-0.15761332,0.02859499,0.09604273,-0.00512169,-0.019850
 11,0.02878050,0.02119261,-0.00188422,-0.00872775,0.17543883,0.01641872
 ,0.00656125,-0.01519809,0.00010148,-0.00003083,0.00026090,-0.00025415,
 0.00096760,-0.00079465,-0.00012228,0.00049875,-0.00046230,0.00052391,0
 .00003226,0.00036363,0.00101065,-0.00351343,0.00076704,0.00085978,-0.0
 0003093,0.00037495,-0.00078280,-0.00035408,-0.00037660,0.00032174,-0.0
 0008636,0.00018172,0.00019759,0.00021307,0.00019406,-0.00009158,-0.000
 06100,-0.00009409,0.00001341,0.00003014,0.00000927,0.00000334,-0.00002
 040,-0.00000388,0.00005244,0.00003537,-0.00006436,-0.00002336,0.000041
 85,-0.00000604,0.00000345,0.00000408,0.00000653,0.00003085,0.00001396,
 0.00000856,-0.00000272,-0.00000185,0.00000118,-0.00000203,-0.00000099,
 -0.00000426,0.00000153,0.00000394,-0.00000238,0.00001127,-0.00000230,0
 .00000665,-0.00000206,0.00000409,0.00000441,0.00040191,0.00033240,-0.0
 0033272,0.00022270,-0.00001736,-0.00021258,0.02647853,-0.08013994,-0.0
 2395329,-0.02952383,-0.00284045,0.04388656,0.00446712,-0.00361531,-0.0
 3945799,-0.02105078,0.08212346,0.01128998,-0.00176918,-0.00479384,-0.0
 0012958,0.00268402,0.00002294,0.00103487,0.00024053,0.00049477,-0.0009
 2512,-0.00013230,-0.00002437,-0.00018268,0.00028001,-0.00004810,0.0013
 1529,-0.00217495,0.00076943,0.00085623,-0.00026823,0.00042032,-0.00076
 865,-0.00046903,-0.00044183,0.00025142,-0.00006576,0.00018374,0.000109
 66,0.00027594,0.00028497,-0.00005839,-0.00004234,-0.00010261,0.0000163
 1,0.00002702,-0.00000036,0.00000455,-0.00001786,-0.00000590,0.00012387
 ,0.00002914,-0.00013288,-0.00001487,0.00004700,-0.00002546,0.00000608,
 0.00000849,0.00000955,0.00001994,0.00000605,0.00001293,-0.00000552,0.0
 0000355,0.00000641,-0.00000301,-0.00000900,-0.00000079,-0.00000244,-0.
 00000039,0.00000016,0.00000990,-0.00000119,0.00000432,-0.00000047,0.00
 000708,0.00000748,-0.00026391,-0.00108656,-0.00038977,-0.00056017,-0.0
 0016866,-0.00010502,0.10005336,-0.02852874,-0.18873612,0.03276439,0.03
 194088,-0.04294191,0.00632314,-0.03522050,-0.07243330,-0.15167792,0.03
 485636,0.30770689,-0.00000201,0.00602694,-0.00287271,-0.00184033,-0.00
 211852,0.00118787,0.00239933,0.00156307,0.00014423,-0.01883206,-0.0057
 7176,0.00876406,-0.14582630,-0.04213034,0.05059378,-0.04287753,-0.0149
 4995,0.01712889,0.00416062,0.00217620,-0.00159631,-0.00129643,-0.00429
 270,-0.00229444,0.00057017,0.00044214,0.00054402,-0.00013904,0.0038729
 5,-0.00225193,-0.00011782,-0.00018556,0.00000319,0.00004818,0.00003573
 ,0.00004949,-0.00000023,-0.00001130,0.00000520,0.00043884,-0.00005835,
 -0.00061177,-0.00014832,-0.00001201,0.00018334,0.00003048,-0.00000537,
 0.00002253,0.00013130,0.00002749,0.00000898,-0.00000432,-0.00000878,-0
 .00000575,-0.00000406,0.00003205,-0.00002738,0.00002021,0.00000583,-0.
 00000287,-0.00000311,0.00000941,0.00000091,-0.00000051,-0.00001003,-0.
 00000147,0.00011287,-0.00008147,-0.00002695,0.00067410,-0.00095387,0.0
 0006697,0.00183278,-0.00262919,0.00161733,-0.00036721,0.00091098,-0.00
 042572,-0.00092678,0.00007939,-0.00072469,-0.00116086,0.00072387,0.000
 39170,0.20338953,0.00163787,0.00046708,0.00241669,-0.00132963,-0.00005
 807,-0.00053744,0.00435893,-0.00057050,0.00270238,-0.02744551,-0.00887
 418,0.01414560,-0.03826807,-0.05256126,0.02565059,0.00567414,0.0064301
 8,-0.00293551,-0.00239241,-0.00206817,0.00072895,-0.00126008,-0.002060
 89,0.00072945,0.00040088,0.00039621,-0.00027156,0.00060443,0.00011669,
 0.00081637,-0.00005796,-0.00009560,0.00006781,0.00002999,0.00001228,0.
 00001643,-0.00000537,-0.00000565,0.00000595,-0.00021466,0.00016018,0.0
 0022669,-0.00013135,-0.00006991,0.00004504,-0.00000407,0.00000604,0.00
 000033,0.00005965,0.00001090,0.00003112,-0.00000293,-0.00000971,-0.000
 00103,-0.00000152,0.00001898,-0.00001554,0.00001309,0.00000442,-0.0000
 0141,-0.00000235,0.00000537,-0.00000087,0.00000086,-0.00000483,-0.0000
 0072,-0.00004244,0.00003647,-0.00020013,0.00079249,-0.00006491,-0.0019
 5021,0.00067051,-0.00023271,0.00029419,-0.00011956,0.00030209,-0.00011
 745,-0.00004391,0.00002869,0.00000023,-0.00021947,0.00015236,-0.000012
 90,0.05831898,0.05963775,-0.00065397,0.00094370,0.00393496,0.00073378,
 0.00033031,-0.00108020,-0.00197372,0.00267677,0.00267419,0.02064461,0.
 00910025,-0.00587245,0.04694331,0.02504005,-0.04839318,0.00562076,0.00
 131391,0.00272269,-0.00048618,-0.00128606,-0.00289917,0.00137906,0.002
 61201,-0.00208345,-0.00114091,0.00007514,0.00030826,-0.00033435,0.0022
 4232,-0.00509114,0.00015850,0.00016918,0.00009535,-0.00004277,-0.00004
 371,-0.00001595,0.00000116,0.00002397,-0.00000805,0.00030711,-0.000070
 57,-0.00010553,-0.00007551,0.00000411,-0.00008215,0.00002983,-0.000022
 66,-0.00000136,-0.00012811,-0.00003375,-0.00005160,-0.00000068,0.00001
 502,0.00000027,0.00000599,-0.00002379,0.00001809,-0.00001587,-0.000005
 90,0.00000370,-0.00000717,-0.00000550,-0.00000448,0.00000148,0.0000040
 8,0.00000086,-0.00006019,-0.00024561,-0.00030362,-0.00106323,-0.001465
 82,-0.00154335,-0.00092151,0.00087271,-0.00045495,0.00017460,-0.000391
 98,0.00021922,0.00038833,-0.00008110,0.00032209,0.00023350,-0.00012153
 ,-0.00003392,-0.07040818,-0.04254457,0.05830388,-0.00352461,0.00009104
 ,0.00074986,0.00430234,0.02206953,-0.01359471,-0.04001964,-0.00342839,
 0.00413379,-0.00219845,-0.02023409,0.01364239,-0.00366107,0.00181322,-
 0.00020868,0.00101272,-0.00014082,-0.00014328,-0.00209639,-0.00546626,
 0.00295372,0.00069358,-0.00006185,0.00162340,-0.00016298,0.00028837,-0
 .00023229,-0.00010776,-0.00018632,-0.00053373,0.00005709,0.00004342,0.
 00003784,-0.00001283,-0.00002944,0.00000140,-0.00000407,0.00001732,0.0
 0000104,-0.00231487,-0.00201073,0.00098909,0.00000005,-0.00006266,0.00
 002180,-0.00000379,-0.00000001,0.00000800,-0.00001461,-0.00000610,-0.0
 0000019,-0.00000041,0.00000297,0.00000305,0.00000375,0.00000308,-0.000
 00371,0.00000138,-0.00000110,-0.00000046,-0.00000936,0.00000176,-0.000
 00426,0.00000190,-0.00000380,0.00000029,0.00052385,0.00084163,-0.00085
 963,0.00016258,-0.00002004,-0.00005435,0.00062168,0.00036062,-0.000169
 00,-0.00027528,0.00053415,-0.00023953,-0.00003920,-0.00001736,-0.00004
 073,-0.00003428,0.00001129,0.00002205,-0.00026149,-0.00102057,0.000690
 35,0.04736018,0.00501601,0.00326060,0.00055264,0.00032887,-0.02973868,
 0.02025258,-0.00708149,-0.13197266,0.06749340,0.00061810,-0.02504808,0
 .01888841,-0.00148106,0.00440140,0.00042005,-0.00053632,-0.00214342,0.
 00087056,0.00151360,0.00021440,-0.00217840,0.00092070,0.00035414,-0.00
 026634,-0.00073112,0.00040323,-0.00046700,-0.00036853,0.00040576,-0.00
 017593,0.00000494,0.00005065,0.00022437,-0.00003455,-0.00009581,0.0000
 2384,-0.00001740,0.00004732,-0.00000942,-0.00185483,-0.00042404,0.0001
 9182,-0.00008113,-0.00017729,0.00008853,-0.00000638,-0.00002654,0.0000
 0439,-0.00001988,-0.00000063,-0.00004537,-0.00000518,0.00000260,0.0000
 0470,0.00000375,0.00003475,-0.00003498,0.00002073,0.00000704,-0.000004
 77,-0.00002073,0.00000199,-0.00000882,-0.00000081,-0.00001139,0.000003
 27,-0.00089211,-0.00039567,-0.00128021,-0.00005677,-0.00006265,-0.0002
 1227,-0.00353307,0.00034180,0.00035114,0.00088234,-0.00110577,0.000367
 50,0.00093279,0.00016279,0.00048936,0.00087423,-0.00029933,-0.00043844
 ,-0.00100584,-0.00110929,0.00091901,0.00661114,0.18292279,-0.00189711,
 0.00127472,0.00425921,0.00047071,0.01780546,-0.00702521,0.00432804,0.0
 6801302,-0.06477982,0.00247822,0.01953024,-0.00836470,0.00175075,-0.00
 055180,0.00394715,-0.00024554,0.00087745,-0.00125671,-0.00084360,-0.00
 020998,-0.00064777,-0.00091596,0.00037377,-0.00060802,0.00040360,-0.00
 034588,0.00031944,0.00040888,-0.00017888,0.00041940,-0.00003823,-0.000
 03115,-0.00012917,0.00002584,0.00005914,-0.00001890,0.00000691,-0.0000
 2620,0.00000589,0.00167900,-0.00033256,-0.00137868,0.00000163,0.000108
 87,-0.00007405,0.00002305,0.00002384,0.00000318,0.00001143,0.00000569,
 0.00002713,-0.00000334,-0.00000146,0.00000223,-0.00000084,-0.00002647,
 0.00001845,-0.00001162,-0.00000551,0.00000394,0.00001296,-0.00000085,0
 .00000480,0.00000192,0.00000886,0.00000094,0.00014768,-0.00145348,-0.0
 0213433,-0.00003400,-0.00019607,-0.00023660,0.00214657,-0.00011120,0.0
 0012306,-0.00056124,0.00060296,-0.00035350,-0.00054772,-0.00006339,-0.
 00029934,-0.00054214,0.00016295,0.00029227,0.00053770,0.00071153,-0.00
 057900,-0.00879352,-0.10602363,0.07845866\\0.00000617,0.00001053,-0.00
 000149,0.00000423,-0.00000950,0.00000986,-0.00001571,0.00000619,-0.000
 00226,0.00001423,0.00000665,-0.00000560,-0.00000026,-0.00000923,0.0000
 0845,-0.00001229,0.00000263,0.00000398,-0.00000771,-0.00000211,0.00000
 724,0.00000646,0.00000289,-0.00000213,-0.00000544,-0.00000634,-0.00001
 004,-0.00000055,-0.00000086,-0.00000103,0.00000367,-0.00000007,0.00000
 625,-0.00000125,-0.00000187,-0.00000787,0.00000495,-0.00000087,-0.0000
 0382,-0.00000110,0.00000220,-0.00000171,0.00000013,0.00000252,-0.00000
 046,0.00000161,-0.00000119,-0.00000512,-0.00000006,0.00000040,-0.00000
 373,0.00000208,-0.00000047,-0.00000382,0.00000218,-0.00000128,-0.00000
 370,0.00000076,-0.00000286,-0.00000553,0.00000204,-0.00000238,-0.00000
 589,0.00000285,-0.00000270,-0.00000489,-0.00000062,0.00000224,0.000004
 44,0.00000025,0.00000111,0.00000288,-0.00000025,0.00000046,0.00000449,
 -0.00000339,-0.00000398,0.00000924,-0.00000311,0.00000250,0.00000162,-
 0.00000028,0.00000537,0.00000816,-0.00000014,0.00000221,-0.00000061,0.
 00000054,-0.00000217,0.00000306\\\@


 When I told the people of Northern Ireland that I was
 an atheist, a woman in the audience stood up and said,
 "Yes, but is it the God of the Catholics or the God
 of the Protestants in whom you don't believe?"
                               -- Quentin Crisp
 Job cpu time:       0 days  3 hours 26 minutes 23.1 seconds.
 File lengths (MBytes):  RWF=    642 Int=      0 D2E=      0 Chk=     21 Scr=      1
 Normal termination of Gaussian 09 at Thu Feb 21 23:55:49 2019.
WARNING: pbs_rusage is deprecated and values produced may not be accurate


=============================================================================
                                     Resource usage:
                                       CPU time:              09:45:23
   JobId:    5979801.r-man2            Elapsed time:          02:27:24
   Project:             q95            Requested time:        38:00:00
   Service Units:      9.83 
                                       Max physical memory:      734MB
                                       Max virtual memory:      1731MB
                                       Requested memory:           0MB

                                       Number of cpus:               4

                                       Max jobfs disk use:       0.6GB
                                       Requested jobfs:         16.0GB
=============================================================================

