 Entering Gaussian System, Link 0=/apps/gaussian/g09e01/g09/g09
 AtFile(1): /home/507/hio507/Basis/6-31pGd.gbs
 Initial command:
 /apps/gaussian/g09e01/g09/l1.exe "/jobfs/local/5874036.r-man2/Gau-40708.inp" -scrdir="/jobfs/local/5874036.r-man2/"
 Entering Link 1 = /apps/gaussian/g09e01/g09/l1.exe PID=     40709.
  
 Copyright (c) 1988,1990,1992,1993,1995,1998,2003,2009,2015,
            Gaussian, Inc.  All Rights Reserved.
  
 This is part of the Gaussian(R) 09 program.  It is based on
 the Gaussian(R) 03 system (copyright 2003, Gaussian, Inc.),
 the Gaussian(R) 98 system (copyright 1998, Gaussian, Inc.),
 the Gaussian(R) 94 system (copyright 1995, Gaussian, Inc.),
 the Gaussian 92(TM) system (copyright 1992, Gaussian, Inc.),
 the Gaussian 90(TM) system (copyright 1990, Gaussian, Inc.),
 the Gaussian 88(TM) system (copyright 1988, Gaussian, Inc.),
 the Gaussian 86(TM) system (copyright 1986, Carnegie Mellon
 University), and the Gaussian 82(TM) system (copyright 1983,
 Carnegie Mellon University). Gaussian is a federally registered
 trademark of Gaussian, Inc.
  
 This software contains proprietary and confidential information,
 including trade secrets, belonging to Gaussian, Inc.
  
 This software is provided under written license and may be
 used, copied, transmitted, or stored only in accord with that
 written license.
  
 The following legend is applicable only to US Government
 contracts under FAR:
  
                    RESTRICTED RIGHTS LEGEND
  
 Use, reproduction and disclosure by the US Government is
 subject to restrictions as set forth in subparagraphs (a)
 and (c) of the Commercial Computer Software - Restricted
 Rights clause in FAR 52.227-19.
  
 Gaussian, Inc.
 340 Quinnipiac St., Bldg. 40, Wallingford CT 06492
  
  
 ---------------------------------------------------------------
 Warning -- This program may not be used in any manner that
 competes with the business of Gaussian, Inc. or will provide
 assistance to any competitor of Gaussian, Inc.  The licensee
 of this program is prohibited from giving any competitor of
 Gaussian, Inc. access to this program.  By using this program,
 the user acknowledges that Gaussian, Inc. is engaged in the
 business of creating and licensing software in the field of
 computational chemistry and represents and warrants to the
 licensee that it is not a competitor of Gaussian, Inc. and that
 it will not use this program in any manner prohibited above.
 ---------------------------------------------------------------
  

 Cite this work as:
 Gaussian 09, Revision E.01,
 M. J. Frisch, G. W. Trucks, H. B. Schlegel, G. E. Scuseria, 
 M. A. Robb, J. R. Cheeseman, G. Scalmani, V. Barone, B. Mennucci, 
 G. A. Petersson, H. Nakatsuji, M. Caricato, X. Li, H. P. Hratchian, 
 A. F. Izmaylov, J. Bloino, G. Zheng, J. L. Sonnenberg, M. Hada, 
 M. Ehara, K. Toyota, R. Fukuda, J. Hasegawa, M. Ishida, T. Nakajima, 
 Y. Honda, O. Kitao, H. Nakai, T. Vreven, J. A. Montgomery, Jr., 
 J. E. Peralta, F. Ogliaro, M. Bearpark, J. J. Heyd, E. Brothers, 
 K. N. Kudin, V. N. Staroverov, T. Keith, R. Kobayashi, J. Normand, 
 K. Raghavachari, A. Rendell, J. C. Burant, S. S. Iyengar, J. Tomasi, 
 M. Cossi, N. Rega, J. M. Millam, M. Klene, J. E. Knox, J. B. Cross, 
 V. Bakken, C. Adamo, J. Jaramillo, R. Gomperts, R. E. Stratmann, 
 O. Yazyev, A. J. Austin, R. Cammi, C. Pomelli, J. W. Ochterski, 
 R. L. Martin, K. Morokuma, V. G. Zakrzewski, G. A. Voth, 
 P. Salvador, J. J. Dannenberg, S. Dapprich, A. D. Daniels, 
 O. Farkas, J. B. Foresman, J. V. Ortiz, J. Cioslowski, 
 and D. J. Fox, Gaussian, Inc., Wallingford CT, 2013.
 
 ******************************************
 Gaussian 09:  ES64L-G09RevE.01 30-Nov-2015
                19-Feb-2019 
 ******************************************
 %chk=22Cl_4CF3_EtO.M062X_6-31pGd_opt_water.chk
 %mem=196608000
 %nproc=8
 Will use up to    8 processors via shared memory.
 ----------------------------------------------------------------------
 # M062X/Gen 6D SCF=Tight INT(grid=ultrafine) OPT IOP(2/17=4) SCRF=(SMD
 ,Solvent=h2o) maxdisk=3221225472
 ----------------------------------------------------------------------
 1/14=-1,18=20,19=15,26=4,38=1/1,3;
 2/9=110,12=2,17=4,18=5,40=1/2;
 3/5=7,8=2,11=2,16=1,25=1,30=1,70=32201,71=1,72=1,74=-55,75=-5/1,2,3;
 4//1;
 5/5=2,32=2,38=5,53=1/2;
 6/7=2,8=2,9=2,10=2,28=1/1;
 7//1,2,3,16;
 1/14=-1,18=20,19=15,26=4/3(2);
 2/9=110,17=4/2;
 99//99;
 2/9=110,17=4/2;
 3/5=7,6=1,8=2,11=2,16=1,25=1,30=1,70=32205,71=1,72=1,74=-55,75=-5,82=7/1,2,3;
 4/5=5,16=3,69=1/1;
 5/5=2,32=2,38=5,53=1/2;
 7//1,2,3,16;
 1/14=-1,18=20,19=15,26=4/3(-5);
 2/9=110,17=4/2;
 6/7=2,8=2,9=2,10=2,19=2,28=1/1;
 99/9=1/99;
 -------------------------------------
 22Cl_4CF3_EtO.M062X_6-31pGd_opt_water
 -------------------------------------
 Symbolic Z-matrix:
 Charge = -1 Multiplicity = 1
 C                    -4.39892   4.10143  -0.83028 
 C                    -4.47379   2.73744  -0.53366 
 C                    -3.31813   1.98996  -0.29205 
 C                    -2.04179   2.60032  -0.32467 
 C                    -1.96886   3.9866   -0.64649 
 C                    -3.14037   4.71415  -0.89112 
 N                    -0.88284   1.78927  -0.07169 
 C                     0.19885   2.16524   0.67635 
 N                     1.24393   1.30434   0.83775 
 O                     0.21766   3.24756   1.2447 
 C                     2.39686   1.65327   1.65097 
 C                     3.42637   0.51851   1.66589 
 C                     4.63609   0.88137   2.52209 
 H                    -0.90039   0.71251  -0.45274 
 H                     1.21329   0.2862    0.31811 
 H                     2.0617    1.85523   2.69233 
 H                     2.87123   2.57117   1.23864 
 H                     3.76918   0.3146    0.62814 
 H                     2.95757  -0.40214   2.07674 
 H                     5.13551   1.78861   2.12012 
 H                     5.3631    0.04212   2.51371 
 H                     4.3238    1.07094   3.57119 
 H                    -5.44081   2.25024  -0.48871 
 H                    -3.059     5.764    -1.14336 
 C                    -5.67036   4.87139  -1.08946 
 F                    -5.41811   6.20292  -1.37197 
 F                    -6.33606   4.31244  -2.1653 
 F                    -6.48358   4.80589   0.02737 
 Cl                   -0.46098   4.87417  -0.86954 
 Cl                   -3.52982   0.28542   0.09731 
 O                     1.41455  -1.45748  -1.0056 
 O                    -0.63349  -1.02546  -1.77496 
 C                     0.49727  -1.76691  -1.75439 
 C                     0.64843  -2.97187  -2.64239 
 C                    -0.58207  -3.22076  -3.51216 
 H                     0.82494  -3.86613  -2.00687 
 H                     1.53022  -2.82359  -3.30207 
 H                    -1.47592  -3.39558  -2.87572 
 H                    -0.41551  -4.11869  -4.14377 
 H                    -0.76833  -2.34966  -4.17618 
 
 Add virtual bond connecting atoms O31        and H15        Dist= 4.15D+00.
 Add virtual bond connecting atoms O32        and H14        Dist= 4.16D+00.

 GradGradGradGradGradGradGradGradGradGradGradGradGradGradGradGradGradGrad
 Berny optimization.
 Initialization pass.
                           ----------------------------
                           !    Initial Parameters    !
                           ! (Angstroms and Degrees)  !
 --------------------------                            --------------------------
 ! Name  Definition              Value          Derivative Info.                !
 --------------------------------------------------------------------------------
 ! R1    R(1,2)                  1.3979         estimate D2E/DX2                !
 ! R2    R(1,6)                  1.4011         estimate D2E/DX2                !
 ! R3    R(1,25)                 1.5088         estimate D2E/DX2                !
 ! R4    R(2,3)                  1.3974         estimate D2E/DX2                !
 ! R5    R(2,23)                 1.0837         estimate D2E/DX2                !
 ! R6    R(3,4)                  1.4151         estimate D2E/DX2                !
 ! R7    R(3,30)                 1.7612         estimate D2E/DX2                !
 ! R8    R(4,5)                  1.425          estimate D2E/DX2                !
 ! R9    R(4,7)                  1.437          estimate D2E/DX2                !
 ! R10   R(5,6)                  1.4006         estimate D2E/DX2                !
 ! R11   R(5,29)                 1.7639         estimate D2E/DX2                !
 ! R12   R(6,24)                 1.0828         estimate D2E/DX2                !
 ! R13   R(7,8)                  1.3678         estimate D2E/DX2                !
 ! R14   R(7,14)                 1.1423         estimate D2E/DX2                !
 ! R15   R(8,9)                  1.3636         estimate D2E/DX2                !
 ! R16   R(8,10)                 1.2226         estimate D2E/DX2                !
 ! R17   R(9,11)                 1.4534         estimate D2E/DX2                !
 ! R18   R(9,15)                 1.1435         estimate D2E/DX2                !
 ! R19   R(11,12)                1.5323         estimate D2E/DX2                !
 ! R20   R(11,16)                1.1125         estimate D2E/DX2                !
 ! R21   R(11,17)                1.1125         estimate D2E/DX2                !
 ! R22   R(12,13)                1.5258         estimate D2E/DX2                !
 ! R23   R(12,18)                1.1118         estimate D2E/DX2                !
 ! R24   R(12,19)                1.1118         estimate D2E/DX2                !
 ! R25   R(13,20)                1.1109         estimate D2E/DX2                !
 ! R26   R(13,21)                1.1104         estimate D2E/DX2                !
 ! R27   R(13,22)                1.1109         estimate D2E/DX2                !
 ! R28   R(14,32)                2.2            estimate D2E/DX2                !
 ! R29   R(15,31)                2.1984         estimate D2E/DX2                !
 ! R30   R(25,26)                1.3843         estimate D2E/DX2                !
 ! R31   R(25,27)                1.3831         estimate D2E/DX2                !
 ! R32   R(25,28)                1.3831         estimate D2E/DX2                !
 ! R33   R(31,33)                1.2239         estimate D2E/DX2                !
 ! R34   R(32,33)                1.3523         estimate D2E/DX2                !
 ! R35   R(33,34)                1.5044         estimate D2E/DX2                !
 ! R36   R(34,35)                1.5273         estimate D2E/DX2                !
 ! R37   R(34,36)                1.1112         estimate D2E/DX2                !
 ! R38   R(34,37)                1.1112         estimate D2E/DX2                !
 ! R39   R(35,38)                1.1111         estimate D2E/DX2                !
 ! R40   R(35,39)                1.1104         estimate D2E/DX2                !
 ! R41   R(35,40)                1.111          estimate D2E/DX2                !
 ! A1    A(2,1,6)              118.9495         estimate D2E/DX2                !
 ! A2    A(2,1,25)             119.2912         estimate D2E/DX2                !
 ! A3    A(6,1,25)             121.7565         estimate D2E/DX2                !
 ! A4    A(1,2,3)              120.9537         estimate D2E/DX2                !
 ! A5    A(1,2,23)             119.6859         estimate D2E/DX2                !
 ! A6    A(3,2,23)             119.3604         estimate D2E/DX2                !
 ! A7    A(2,3,4)              120.7441         estimate D2E/DX2                !
 ! A8    A(2,3,30)             117.1631         estimate D2E/DX2                !
 ! A9    A(4,3,30)             122.0681         estimate D2E/DX2                !
 ! A10   A(3,4,5)              118.0957         estimate D2E/DX2                !
 ! A11   A(3,4,7)              118.6795         estimate D2E/DX2                !
 ! A12   A(5,4,7)              123.1989         estimate D2E/DX2                !
 ! A13   A(4,5,6)              120.1313         estimate D2E/DX2                !
 ! A14   A(4,5,29)             124.1823         estimate D2E/DX2                !
 ! A15   A(6,5,29)             115.5677         estimate D2E/DX2                !
 ! A16   A(1,6,5)              121.1041         estimate D2E/DX2                !
 ! A17   A(1,6,24)             120.1079         estimate D2E/DX2                !
 ! A18   A(5,6,24)             118.783          estimate D2E/DX2                !
 ! A19   A(4,7,8)              125.3754         estimate D2E/DX2                !
 ! A20   A(4,7,14)             117.4447         estimate D2E/DX2                !
 ! A21   A(8,7,14)             116.9788         estimate D2E/DX2                !
 ! A22   A(7,8,9)              119.8202         estimate D2E/DX2                !
 ! A23   A(7,8,10)             120.6448         estimate D2E/DX2                !
 ! A24   A(9,8,10)             119.4776         estimate D2E/DX2                !
 ! A25   A(8,9,11)             121.5089         estimate D2E/DX2                !
 ! A26   A(8,9,15)             119.1969         estimate D2E/DX2                !
 ! A27   A(11,9,15)            119.2939         estimate D2E/DX2                !
 ! A28   A(9,11,12)            111.1397         estimate D2E/DX2                !
 ! A29   A(9,11,16)            109.1696         estimate D2E/DX2                !
 ! A30   A(9,11,17)            109.2059         estimate D2E/DX2                !
 ! A31   A(12,11,16)           109.133          estimate D2E/DX2                !
 ! A32   A(12,11,17)           109.1573         estimate D2E/DX2                !
 ! A33   A(16,11,17)           109.004          estimate D2E/DX2                !
 ! A34   A(11,12,13)           111.2255         estimate D2E/DX2                !
 ! A35   A(11,12,18)           109.5068         estimate D2E/DX2                !
 ! A36   A(11,12,19)           109.4835         estimate D2E/DX2                !
 ! A37   A(13,12,18)           108.8402         estimate D2E/DX2                !
 ! A38   A(13,12,19)           108.8964         estimate D2E/DX2                !
 ! A39   A(18,12,19)           108.8484         estimate D2E/DX2                !
 ! A40   A(12,13,20)           110.3405         estimate D2E/DX2                !
 ! A41   A(12,13,21)           109.5796         estimate D2E/DX2                !
 ! A42   A(12,13,22)           110.3424         estimate D2E/DX2                !
 ! A43   A(20,13,21)           108.6739         estimate D2E/DX2                !
 ! A44   A(20,13,22)           109.192          estimate D2E/DX2                !
 ! A45   A(21,13,22)           108.6728         estimate D2E/DX2                !
 ! A46   A(7,14,32)            160.6052         estimate D2E/DX2                !
 ! A47   A(1,25,26)            111.8601         estimate D2E/DX2                !
 ! A48   A(1,25,27)            109.4489         estimate D2E/DX2                !
 ! A49   A(1,25,28)            109.4262         estimate D2E/DX2                !
 ! A50   A(26,25,27)           108.522          estimate D2E/DX2                !
 ! A51   A(26,25,28)           108.5105         estimate D2E/DX2                !
 ! A52   A(27,25,28)           109.024          estimate D2E/DX2                !
 ! A53   A(15,31,33)           120.0203         estimate D2E/DX2                !
 ! A54   A(14,32,33)           121.6971         estimate D2E/DX2                !
 ! A55   A(31,33,32)           119.827          estimate D2E/DX2                !
 ! A56   A(31,33,34)           119.2308         estimate D2E/DX2                !
 ! A57   A(32,33,34)           120.9421         estimate D2E/DX2                !
 ! A58   A(33,34,35)           112.6882         estimate D2E/DX2                !
 ! A59   A(33,34,36)           108.8417         estimate D2E/DX2                !
 ! A60   A(33,34,37)           108.861          estimate D2E/DX2                !
 ! A61   A(35,34,36)           108.8165         estimate D2E/DX2                !
 ! A62   A(35,34,37)           108.8452         estimate D2E/DX2                !
 ! A63   A(36,34,37)           108.7159         estimate D2E/DX2                !
 ! A64   A(34,35,38)           110.3393         estimate D2E/DX2                !
 ! A65   A(34,35,39)           109.5645         estimate D2E/DX2                !
 ! A66   A(34,35,40)           110.344          estimate D2E/DX2                !
 ! A67   A(38,35,39)           108.6178         estimate D2E/DX2                !
 ! A68   A(38,35,40)           109.3189         estimate D2E/DX2                !
 ! A69   A(39,35,40)           108.6153         estimate D2E/DX2                !
 ! A70   L(9,15,31,2,-1)       182.9564         estimate D2E/DX2                !
 ! A71   L(9,15,31,2,-2)       167.6229         estimate D2E/DX2                !
 ! D1    D(6,1,2,3)              0.3879         estimate D2E/DX2                !
 ! D2    D(6,1,2,23)          -179.6785         estimate D2E/DX2                !
 ! D3    D(25,1,2,3)           179.79           estimate D2E/DX2                !
 ! D4    D(25,1,2,23)           -0.2765         estimate D2E/DX2                !
 ! D5    D(2,1,6,5)             -0.6896         estimate D2E/DX2                !
 ! D6    D(2,1,6,24)           178.4889         estimate D2E/DX2                !
 ! D7    D(25,1,6,5)           179.9238         estimate D2E/DX2                !
 ! D8    D(25,1,6,24)           -0.8978         estimate D2E/DX2                !
 ! D9    D(2,1,25,26)         -179.7628         estimate D2E/DX2                !
 ! D10   D(2,1,25,27)          -59.454          estimate D2E/DX2                !
 ! D11   D(2,1,25,28)           59.9582         estimate D2E/DX2                !
 ! D12   D(6,1,25,26)           -0.3782         estimate D2E/DX2                !
 ! D13   D(6,1,25,27)          119.9306         estimate D2E/DX2                !
 ! D14   D(6,1,25,28)         -120.6572         estimate D2E/DX2                !
 ! D15   D(1,2,3,4)              0.8264         estimate D2E/DX2                !
 ! D16   D(1,2,3,30)           179.0563         estimate D2E/DX2                !
 ! D17   D(23,2,3,4)          -179.1073         estimate D2E/DX2                !
 ! D18   D(23,2,3,30)           -0.8775         estimate D2E/DX2                !
 ! D19   D(2,3,4,5)             -1.6965         estimate D2E/DX2                !
 ! D20   D(2,3,4,7)           -179.9054         estimate D2E/DX2                !
 ! D21   D(30,3,4,5)          -179.838          estimate D2E/DX2                !
 ! D22   D(30,3,4,7)             1.9531         estimate D2E/DX2                !
 ! D23   D(3,4,5,6)              1.3907         estimate D2E/DX2                !
 ! D24   D(3,4,5,29)          -174.4674         estimate D2E/DX2                !
 ! D25   D(7,4,5,6)            179.5128         estimate D2E/DX2                !
 ! D26   D(7,4,5,29)             3.6547         estimate D2E/DX2                !
 ! D27   D(3,4,7,8)           -139.1797         estimate D2E/DX2                !
 ! D28   D(3,4,7,14)            35.494          estimate D2E/DX2                !
 ! D29   D(5,4,7,8)             42.7086         estimate D2E/DX2                !
 ! D30   D(5,4,7,14)          -142.6177         estimate D2E/DX2                !
 ! D31   D(4,5,6,1)             -0.215          estimate D2E/DX2                !
 ! D32   D(4,5,6,24)          -179.4042         estimate D2E/DX2                !
 ! D33   D(29,5,6,1)           175.9871         estimate D2E/DX2                !
 ! D34   D(29,5,6,24)           -3.202          estimate D2E/DX2                !
 ! D35   D(4,7,8,9)           -179.6749         estimate D2E/DX2                !
 ! D36   D(4,7,8,10)             3.0918         estimate D2E/DX2                !
 ! D37   D(14,7,8,9)             5.629          estimate D2E/DX2                !
 ! D38   D(14,7,8,10)         -171.6042         estimate D2E/DX2                !
 ! D39   D(4,7,14,32)           90.6163         estimate D2E/DX2                !
 ! D40   D(8,7,14,32)          -94.2558         estimate D2E/DX2                !
 ! D41   D(7,8,9,11)          -178.4989         estimate D2E/DX2                !
 ! D42   D(7,8,9,15)             1.7134         estimate D2E/DX2                !
 ! D43   D(10,8,9,11)           -1.2333         estimate D2E/DX2                !
 ! D44   D(10,8,9,15)          178.979          estimate D2E/DX2                !
 ! D45   D(8,9,11,12)         -179.8757         estimate D2E/DX2                !
 ! D46   D(8,9,11,16)           59.6959         estimate D2E/DX2                !
 ! D47   D(8,9,11,17)          -59.3933         estimate D2E/DX2                !
 ! D48   D(15,9,11,12)          -0.0882         estimate D2E/DX2                !
 ! D49   D(15,9,11,16)        -120.5166         estimate D2E/DX2                !
 ! D50   D(15,9,11,17)         120.3942         estimate D2E/DX2                !
 ! D51   D(8,9,31,33)           -5.7987         estimate D2E/DX2                !
 ! D52   D(11,9,31,33)        -176.7049         estimate D2E/DX2                !
 ! D53   D(9,11,12,13)        -179.8537         estimate D2E/DX2                !
 ! D54   D(9,11,12,18)          59.8075         estimate D2E/DX2                !
 ! D55   D(9,11,12,19)         -59.46           estimate D2E/DX2                !
 ! D56   D(16,11,12,13)        -59.4036         estimate D2E/DX2                !
 ! D57   D(16,11,12,18)       -179.7425         estimate D2E/DX2                !
 ! D58   D(16,11,12,19)         60.99           estimate D2E/DX2                !
 ! D59   D(17,11,12,13)         59.6353         estimate D2E/DX2                !
 ! D60   D(17,11,12,18)        -60.7035         estimate D2E/DX2                !
 ! D61   D(17,11,12,19)       -179.9711         estimate D2E/DX2                !
 ! D62   D(11,12,13,20)        -60.3698         estimate D2E/DX2                !
 ! D63   D(11,12,13,21)       -179.9926         estimate D2E/DX2                !
 ! D64   D(11,12,13,22)         60.3848         estimate D2E/DX2                !
 ! D65   D(18,12,13,20)         60.362          estimate D2E/DX2                !
 ! D66   D(18,12,13,21)        -59.2608         estimate D2E/DX2                !
 ! D67   D(18,12,13,22)       -178.8834         estimate D2E/DX2                !
 ! D68   D(19,12,13,20)        178.8906         estimate D2E/DX2                !
 ! D69   D(19,12,13,21)         59.2678         estimate D2E/DX2                !
 ! D70   D(19,12,13,22)        -60.3548         estimate D2E/DX2                !
 ! D71   D(7,14,32,33)          90.6638         estimate D2E/DX2                !
 ! D72   D(15,31,33,32)          0.6913         estimate D2E/DX2                !
 ! D73   D(15,31,33,34)       -179.3703         estimate D2E/DX2                !
 ! D74   D(14,32,33,31)         -1.557          estimate D2E/DX2                !
 ! D75   D(14,32,33,34)        178.5056         estimate D2E/DX2                !
 ! D76   D(31,33,34,35)        179.9747         estimate D2E/DX2                !
 ! D77   D(31,33,34,36)         59.1744         estimate D2E/DX2                !
 ! D78   D(31,33,34,37)        -59.1755         estimate D2E/DX2                !
 ! D79   D(32,33,34,35)         -0.0876         estimate D2E/DX2                !
 ! D80   D(32,33,34,36)       -120.8879         estimate D2E/DX2                !
 ! D81   D(32,33,34,37)        120.7622         estimate D2E/DX2                !
 ! D82   D(33,34,35,38)        -60.4254         estimate D2E/DX2                !
 ! D83   D(33,34,35,39)       -179.9688         estimate D2E/DX2                !
 ! D84   D(33,34,35,40)         60.488          estimate D2E/DX2                !
 ! D85   D(36,34,35,38)         60.3892         estimate D2E/DX2                !
 ! D86   D(36,34,35,39)        -59.1542         estimate D2E/DX2                !
 ! D87   D(36,34,35,40)       -178.6974         estimate D2E/DX2                !
 ! D88   D(37,34,35,38)        178.7158         estimate D2E/DX2                !
 ! D89   D(37,34,35,39)         59.1723         estimate D2E/DX2                !
 ! D90   D(37,34,35,40)        -60.3708         estimate D2E/DX2                !
 --------------------------------------------------------------------------------
 Trust Radius=3.00D-01 FncErr=1.00D-07 GrdErr=1.00D-06
 Number of steps in this run=    212 maximum allowed number of steps=    240.
 GradGradGradGradGradGradGradGradGradGradGradGradGradGradGradGradGradGrad

                          Input orientation:                          
 ---------------------------------------------------------------------
 Center     Atomic      Atomic             Coordinates (Angstroms)
 Number     Number       Type             X           Y           Z
 ---------------------------------------------------------------------
      1          6           0       -4.398920    4.101430   -0.830280
      2          6           0       -4.473790    2.737440   -0.533660
      3          6           0       -3.318130    1.989960   -0.292050
      4          6           0       -2.041790    2.600320   -0.324670
      5          6           0       -1.968860    3.986600   -0.646490
      6          6           0       -3.140370    4.714150   -0.891120
      7          7           0       -0.882840    1.789270   -0.071690
      8          6           0        0.198850    2.165240    0.676350
      9          7           0        1.243930    1.304340    0.837750
     10          8           0        0.217660    3.247560    1.244700
     11          6           0        2.396860    1.653270    1.650970
     12          6           0        3.426370    0.518510    1.665890
     13          6           0        4.636090    0.881370    2.522090
     14          1           0       -0.900390    0.712510   -0.452740
     15          1           0        1.213290    0.286200    0.318110
     16          1           0        2.061700    1.855230    2.692330
     17          1           0        2.871230    2.571170    1.238640
     18          1           0        3.769180    0.314600    0.628140
     19          1           0        2.957570   -0.402140    2.076740
     20          1           0        5.135510    1.788610    2.120120
     21          1           0        5.363100    0.042120    2.513710
     22          1           0        4.323800    1.070940    3.571190
     23          1           0       -5.440810    2.250240   -0.488710
     24          1           0       -3.059000    5.764000   -1.143360
     25          6           0       -5.670360    4.871390   -1.089460
     26          9           0       -5.418110    6.202920   -1.371970
     27          9           0       -6.336060    4.312440   -2.165300
     28          9           0       -6.483580    4.805890    0.027370
     29         17           0       -0.460980    4.874170   -0.869540
     30         17           0       -3.529820    0.285420    0.097310
     31          8           0        1.414550   -1.457480   -1.005600
     32          8           0       -0.633490   -1.025460   -1.774960
     33          6           0        0.497270   -1.766910   -1.754390
     34          6           0        0.648430   -2.971870   -2.642390
     35          6           0       -0.582070   -3.220760   -3.512160
     36          1           0        0.824940   -3.866130   -2.006870
     37          1           0        1.530220   -2.823590   -3.302070
     38          1           0       -1.475920   -3.395580   -2.875720
     39          1           0       -0.415510   -4.118690   -4.143770
     40          1           0       -0.768330   -2.349660   -4.176180
 ---------------------------------------------------------------------
                    Distance matrix (angstroms):
                    1          2          3          4          5
     1  C    0.000000
     2  C    1.397876   0.000000
     3  C    2.432304   1.397373   0.000000
     4  C    2.839900   2.444811   1.415149   0.000000
     5  C    2.439704   2.801394   2.435719   1.425012   0.000000
     6  C    1.401098   2.411051   2.794941   2.448677   1.400574
     7  N    4.276022   3.742641   2.453461   1.436999   2.517557
     8  C    5.211358   4.860566   3.652077   2.492349   3.125096
     9  N    6.515197   6.052013   4.749623   3.718433   4.440665
    10  O    5.132976   5.043064   4.055240   2.826120   2.983898
    11  C    7.637586   7.290670   6.045643   4.949916   5.457313
    12  C    8.961213   8.495540   7.175442   6.180375   6.817863
    13  C   10.160639   9.786343   8.509875   7.460088   7.956615
    14  H    4.885389   4.108050   2.739191   2.209756   3.449468
    15  H    6.882709   6.251157   4.879432   4.045227   4.974886
    16  H    7.693751   7.341521   6.153637   5.147434   5.651183
    17  H    7.712147   7.557646   6.402265   5.155827   5.383645
    18  H    9.120577   8.669861   7.340541   6.316624   6.930611
    19  H    9.102244   8.479166   7.121637   6.306753   7.137698
    20  H   10.244967  10.014064   8.793357   7.625582   7.934568
    21  H   11.088611  10.644981   9.328994   8.332658   8.905247
    22  H   10.229499   9.850107   8.612103   7.618232   8.117110
    23  H    2.151536   1.083749   2.147601   3.420936   3.885135
    24  H    2.158134   3.396090   3.877532   3.422549   2.143464
    25  C    1.508831   2.508871   3.804141   4.348469   3.831472
    26  F    2.397590   3.688368   4.829614   5.047286   4.163619
    27  F    2.362057   2.934438   4.243923   4.975945   4.635234
    28  F    2.361702   2.938111   4.248713   4.971717   4.637674
    29  Cl   4.013233   4.558626   4.100667   2.822452   1.763869
    30  Cl   4.022150   2.702148   1.761213   2.784073   4.085164
    31  O    8.045412   7.245180   5.898496   5.373611   6.419847
    32  O    6.430854   5.517984   4.301055   4.151257   5.308239
    33  C    7.698316   6.818415   5.550657   5.250107   6.357053
    34  C    8.876433   7.954879   6.773290   6.607451   7.697670
    35  C    8.681894   7.714732   6.708706   6.795281   7.879168
    36  H    9.599744   8.593836   7.375597   7.270689   8.445195
    37  H    9.445652   8.639287   7.465720   7.144436   8.103971
    38  H    8.302585   7.217091   6.250850   6.540557   7.727162
    39  H    9.716848   8.746945   7.783094   7.897810   8.963235
    40  H    8.123595   7.271655   6.357692   6.399854   7.351746
                    6          7          8          9         10
     6  C    0.000000
     7  N    3.784552   0.000000
     8  C    4.483781   1.367834   0.000000
     9  N    5.817034   2.363343   1.363595   0.000000
    10  O    4.241342   2.251798   1.222617   2.234937   0.000000
    11  C    6.818513   3.707086   2.458301   1.453384   2.730518
    12  C    8.201449   4.816981   3.756034   2.463004   4.233313
    13  C    9.317378   6.165271   4.974352   3.810860   5.172340
    14  H    4.606822   1.142331   2.143268   2.571718   3.249279
    15  H    6.326400   2.608625   2.165229   1.143492   3.258758
    16  H    6.933691   4.039118   2.762334   2.100403   2.726664
    17  H    6.728118   4.052329   2.760899   2.100875   2.738425
    18  H    8.331031   4.930082   4.021747   2.720369   4.647117
    19  H    8.495263   4.915972   4.020332   2.717302   4.638934
    20  H    9.279900   6.405042   5.157222   4.125941   5.203859
    21  H   10.282496   6.982019   5.878181   4.622727   6.193608
    22  H    9.428628   6.394972   5.156821   4.124533   5.197174
    23  H    3.394821   4.600162   5.759371   6.880405   6.001470
    24  H    1.082789   4.656461   5.184207   6.506041   4.771981
    25  C    2.542619   5.784087   6.699922   8.015322   6.538647
    26  F    2.763287   6.460628   7.214479   8.559306   6.880626
    27  F    3.463718   6.362955   7.442479   8.690410   7.464135
    28  F    3.468298   6.362240   7.214505   8.522440   6.986909
    29  Cl   2.684251   3.214209   3.188017   4.308740   2.752530
    30  Cl   4.554373   3.049037   4.215684   4.937118   4.912676
    31  O    7.671337   4.085532   4.175043   3.324861   5.351056
    32  O    6.325247   3.299395   4.108805   3.972270   5.301085
    33  C    7.482099   4.169244   4.632424   4.087697   5.849584
    34  C    8.746248   5.623321   6.132378   5.545446   7.346859
    35  C    8.739425   6.085039   6.867492   6.537012   8.068857
    36  H    9.517867   6.216509   6.630919   5.916179   7.845131
    37  H    9.189375   6.126719   6.518343   5.853194   7.697714
    38  H    8.513328   5.924272   6.807700   6.578502   7.998586
    39  H    9.799166   7.190565   7.943474   7.548413   9.148669
    40  H    8.143439   5.830154   6.698269   6.522300   7.854106
                   11         12         13         14         15
    11  C    0.000000
    12  C    1.532251   0.000000
    13  C    2.523654   1.525834   0.000000
    14  H    4.022746   4.821523   6.287347   0.000000
    15  H    2.246382   2.601577   4.114282   2.289889   0.000000
    16  H    1.112453   2.168576   2.757693   4.468921   2.969609
    17  H    1.112467   2.168902   2.759964   4.532163   2.969382
    18  H    2.172897   1.111766   2.158659   4.809524   2.574781
    19  H    2.172645   1.111831   2.159436   4.746006   2.570818
    20  H    2.781838   2.177301   1.110894   6.649037   4.570370
    21  H    3.484064   2.167180   1.110385   6.962798   4.701187
    22  H    2.781987   2.177321   1.110888   6.603987   4.568766
    23  H    8.146390   9.288061  10.605783   4.793884   6.984659
    24  H    7.380568   8.801538   9.822933   5.536615   7.098919
    25  C    9.107485  10.454186  11.626971   6.360370   8.389866
    26  F    9.534738  10.943762  12.023707   7.169336   9.046514
    27  F    9.894392  11.152442  12.414989   6.740836   8.909019
    28  F    9.562286  10.921240  12.052906   6.939616   8.930506
    29  Cl   4.989431   6.364878   7.309291   4.205498   5.026247
    30  Cl   6.277771   7.134659   8.539133   2.720085   4.748247
    31  O    4.207025   3.884432   5.319129   3.220785   2.198439
    32  O    5.300529   5.541277   7.061807   2.200009   3.084151
    33  C    5.186767   5.049860   6.513947   3.129740   3.003864
    34  C    6.548425   6.201692   7.577648   4.557199   4.438316
    35  C    7.699877   7.540685   8.970442   4.993194   5.494821
    36  H    6.805476   6.283444   7.587826   5.133812   4.774745
    37  H    6.732455   6.280577   7.569280   5.150781   4.782985
    38  H    7.808984   7.744596   9.207894   4.804006   5.566678
    39  H    8.648928   8.367545   9.744381   6.099123   6.477995
    40  H    7.745809   7.742848   9.193157   4.822689   5.574336
                   16         17         18         19         20
    16  H    0.000000
    17  H    1.811387   0.000000
    18  H    3.090293   2.504223   0.000000
    19  H    2.505445   3.090378   1.808554   0.000000
    20  H    3.127326   2.552718   2.503112   3.089448   0.000000
    21  H    3.770745   3.772441   2.483989   2.484931   1.804699
    22  H    2.550412   3.130725   3.088883   2.503983   1.810947
    23  H    8.158597   8.495690   9.477234   9.173300  10.903102
    24  H    7.497504   7.143929   8.913934   9.197252   9.674917
    25  C    9.120521   9.147121  10.621648  10.596043  11.686392
    26  F    9.558687   9.419026  11.094100  11.210372  11.960758
    27  F   10.007838   9.969605  11.220602  11.251388  12.503258
    28  F    9.424978   9.693999  11.209447  10.975373  12.185517
    29  Cl   5.307055   4.566383   6.397420   6.943090   7.055455
    30  Cl   6.361095   6.892077   7.318335   6.817412   9.024372
    31  O    5.006749   4.836171   3.369519   3.604923   5.844037
    32  O    5.959791   5.856671   5.191739   5.302814   7.508129
    33  C    5.944801   5.780385   4.551322   4.753234   7.011906
    34  C    7.331948   7.122396   5.588947   5.848575   8.091820
    35  C    8.441024   8.248747   6.969522   7.190930   9.460819
    36  H    7.506398   7.493962   5.752420   5.763958   8.221262
    37  H    7.622772   7.177729   5.505246   6.068966   7.979389
    38  H    8.431426   8.451496   7.318029   7.289950   9.774725
    39  H    9.410449   9.193869   7.741887   7.992819  10.244332
    40  H    8.536193   8.171979   7.125221   7.534864   9.572043
                   21         22         23         24         25
    21  H    0.000000
    22  H    1.804683   0.000000
    23  H   11.428683  10.640543   0.000000
    24  H   10.818773   9.937682   4.295125   0.000000
    25  C   12.571473  11.663975   2.698893   2.760228   0.000000
    26  F   13.011090  12.069667   4.050227   2.410459   1.384346
    27  F   13.304101  12.531850   2.804478   3.726997   1.383117
    28  F   13.008429  11.971131   2.808034   3.743839   1.383086
    29  Cl   8.289451   7.555049   5.641697   2.759798   5.214021
    30  Cl   9.218580   8.623470   2.802824   5.637000   5.198217
    31  O    5.497762   5.983615   7.810911   8.495964   9.500399
    32  O    7.449262   7.586233   5.957766   7.237319   7.785423
    33  C    6.720533   7.145455   7.280126   8.350750   9.085638
    34  C    7.609048   8.274130   8.305878   9.607682  10.190948
    35  C    9.072075   9.626011   7.917098   9.616252   9.861190
    36  H    7.503663   8.229911   8.886755  10.419695  10.925878
    37  H    7.531704   8.379329   9.069399   9.973348  10.768320
    38  H    9.361406   9.754445   7.300236   9.455428   9.440701
    39  H    9.748165  10.436184   8.898111  10.661053  10.851903
    40  H    9.384544   9.881904   7.522538   8.959723   9.257500
                   26         27         28         29         30
    26  F    0.000000
    27  F    2.246312   0.000000
    28  F    2.246124   2.252345   0.000000
    29  Cl   5.156661   6.042442   6.089402   0.000000
    30  Cl   6.382886   5.404746   5.400392   5.604392   0.000000
    31  O   10.271378   9.731846  10.132980   6.604992   5.357323
    32  O    8.677815   7.820796   8.454383   5.971196   3.689516
    33  C    9.932581   9.155421   9.752366   6.767950   4.884496
    34  C   11.072202  10.103063  10.885161   8.119983   5.964366
    35  C   10.806176   9.574525  10.572758   8.516220   5.831878
    36  H   11.864423  10.871708  11.522002   8.907298   6.373922
    37  H   11.553461  10.681457  11.554875   8.314902   6.842933
    38  H   10.484910   9.139980  10.038361   8.569926   5.158214
    39  H   11.800191  10.490529  11.570134   9.570485   6.861623
    40  H   10.130680   8.912173  10.076498   7.950601   5.729938
                   31         32         33         34         35
    31  O    0.000000
    32  O    2.230028   0.000000
    33  C    1.223861   1.352327   0.000000
    34  C    2.357838   2.486818   1.504434   0.000000
    35  C    3.657662   2.799973   2.523571   1.527277   0.000000
    36  H    2.674281   3.201594   2.139588   1.111190   2.159184
    37  H    2.674586   3.201090   2.139830   1.111179   2.159549
    38  H    3.950746   2.745693   2.793461   2.178723   1.111119
    39  H    4.503251   3.902159   3.474647   2.168250   1.110384
    40  H    3.951396   2.745459   2.793995   2.178730   1.111049
                   36         37         38         39         40
    36  H    0.000000
    37  H    1.806060   0.000000
    38  H    2.504052   3.089632   0.000000
    39  H    2.483716   2.484272   1.804247   0.000000
    40  H    3.089352   2.504398   1.812685   1.804162   0.000000
 Stoichiometry    C14H16Cl2F3N2O3(1-)
 Framework group  C1[X(C14H16Cl2F3N2O3)]
 Deg. of freedom   114
 Full point group                 C1      NOp   1
 Largest Abelian subgroup         C1      NOp   1
 Largest concise Abelian subgroup C1      NOp   1
                         Standard orientation:                         
 ---------------------------------------------------------------------
 Center     Atomic      Atomic             Coordinates (Angstroms)
 Number     Number       Type             X           Y           Z
 ---------------------------------------------------------------------
      1          6           0        3.682800    0.019276    0.008609
      2          6           0        2.907164    0.892254    0.776956
      3          6           0        1.516115    0.767396    0.822181
      4          6           0        0.858143   -0.258847    0.103471
      5          6           0        1.651033   -1.134336   -0.693714
      6          6           0        3.043301   -0.986067   -0.728549
      7          7           0       -0.574236   -0.344973    0.179887
      8          6           0       -1.293321   -1.503655    0.286394
      9          7           0       -2.654779   -1.453898    0.344253
     10          8           0       -0.726157   -2.582616    0.381044
     11          6           0       -3.453423   -2.659420    0.489887
     12          6           0       -4.949468   -2.330216    0.525515
     13          6           0       -5.789669   -3.594236    0.681991
     14          1           0       -1.157954    0.634902    0.243419
     15          1           0       -3.179456   -0.440392    0.272885
     16          1           0       -3.170490   -3.173053    1.435234
     17          1           0       -3.249506   -3.339209   -0.366785
     18          1           0       -5.240040   -1.820593   -0.418876
     19          1           0       -5.159320   -1.650312    1.379834
     20          1           0       -5.613146   -4.283327   -0.171283
     21          1           0       -6.866629   -3.324775    0.704443
     22          1           0       -5.533143   -4.113571    1.629913
     23          1           0        3.389016    1.677505    1.347668
     24          1           0        3.623698   -1.657096   -1.349267
     25          6           0        5.181586    0.191231   -0.016775
     26          9           0        5.794621   -0.748875   -0.827209
     27          9           0        5.492501    1.451855   -0.493399
     28          9           0        5.681658    0.058199    1.265861
     29         17           0        0.990597   -2.374199   -1.760391
     30         17           0        0.639517    1.904522    1.842177
     31          8           0       -4.237550    1.394677   -0.315411
     32          8           0       -2.265375    2.434184   -0.369969
     33          6           0       -3.610705    2.428170   -0.507229
     34          6           0       -4.354255    3.677109   -0.895312
     35          6           0       -3.428727    4.875257   -1.096347
     36          1           0       -5.087727    3.920791   -0.096951
     37          1           0       -4.906283    3.487365   -1.840818
     38          1           0       -2.880386    5.101611   -0.156841
     39          1           0       -4.029009    5.765383   -1.379698
     40          1           0       -2.698266    4.667304   -1.907281
 ---------------------------------------------------------------------
 Rotational constants (GHZ):      0.2412526      0.0978145      0.0774939
 General basis read from cards:  (6D, 7F)
 There are   496 symmetry adapted cartesian basis functions of A   symmetry.
 There are   496 symmetry adapted basis functions of A   symmetry.
   496 basis functions,   880 primitive gaussians,   496 cartesian basis functions
   100 alpha electrons      100 beta electrons
       nuclear repulsion energy      2384.7388069447 Hartrees.
 NAtoms=   40 NActive=   40 NUniq=   40 SFac= 1.00D+00 NAtFMM=   60 NAOKFM=F Big=F
 Integral buffers will be    131072 words long.
 Raffenetti 2 integral format.
 Two-electron integral symmetry is turned on.
 ------------------------------------------------------------------------------
 Polarizable Continuum Model (PCM)
 =================================
 Model                : PCM (using non-symmetric T matrix).
 Atomic radii         : SMD-Coulomb.
 Polarization charges : Total charges.
 Charge compensation  : None.
 Solution method      : On-the-fly selection.
 Cavity type          : VdW (van der Waals Surface) (Alpha=1.000).
 Cavity algorithm     : GePol (No added spheres)
                        Default sphere list used, NSphG=   40.
                        Lebedev-Laikov grids with approx.  5.0 points / Ang**2.
                        Smoothing algorithm: York/Karplus (Gamma=1.0000).
                        Polarization charges: spherical gaussians, with
                                              point-specific exponents (IZeta= 3).
                        Self-potential: point-specific (ISelfS= 7).
                        Self-field    : sphere-specific E.n sum rule (ISelfD= 2).
 1st derivatives      : Analytical E(r).r(x)/FMM algorithm (CHGder, D1EAlg=3).
                        Cavity 1st derivative terms included.
 Solvent              : Water, Eps=  78.355300 Eps(inf)=   1.777849
 ------------------------------------------------------------------------------
 ------------------------------------------------------------------------------
 Atomic radii for non-electrostatic terms: SMD-CDS.
 ------------------------------------------------------------------------------
 Nuclear repulsion after PCM non-electrostatic terms =     2384.7541924984 Hartrees.
 One-electron integrals computed using PRISM.
 NBasis=   496 RedAO= T EigKep=  1.30D-06  NBF=   496
 NBsUse=   494 1.00D-06 EigRej=  7.90D-07 NBFU=   494
 ExpMin= 4.38D-02 ExpMax= 2.52D+04 ExpMxC= 3.78D+03 IAcc=3 IRadAn=         5 AccDes= 0.00D+00
 Harris functional with IExCor= 1009 and IRadAn=       5 diagonalized for initial guess.
 HarFok:  IExCor= 1009 AccDes= 0.00D+00 IRadAn=         5 IDoV= 1 UseB2=F ITyADJ=14
 ICtDFT=  3500011 ScaDFX=  1.000000  1.000000  1.000000  1.000000
 FoFCou: FMM=F IPFlag=           0 FMFlag=      100000 FMFlg1=           0
         NFxFlg=           0 DoJE=T BraDBF=F KetDBF=T FulRan=T
         wScrn=  0.000000 ICntrl=     500 IOpCl=  0 I1Cent=   200000004 NGrid=           0
         NMat0=    1 NMatS0=      1 NMatT0=    0 NMatD0=    1 NMtDS0=    0 NMtDT0=    0
 Petite list used in FoFCou.
 Requested convergence on RMS density matrix=1.00D-08 within 128 cycles.
 Requested convergence on MAX density matrix=1.00D-06.
 Requested convergence on             energy=1.00D-06.
 No special actions if energy rises.
 Inv3:  Mode=1 IEnd=    33346668.
 Iteration    1 A*A^-1 deviation from unit magnitude is 7.33D-15 for    364.
 Iteration    1 A*A^-1 deviation from orthogonality  is 3.97D-15 for   2230   2069.
 Iteration    1 A^-1*A deviation from unit magnitude is 6.88D-15 for   1209.
 Iteration    1 A^-1*A deviation from orthogonality  is 1.71D-09 for   2223   2217.
 Iteration    2 A*A^-1 deviation from unit magnitude is 1.09D-14 for   1209.
 Iteration    2 A*A^-1 deviation from orthogonality  is 7.81D-15 for   1882    366.
 Iteration    2 A^-1*A deviation from unit magnitude is 1.33D-15 for    373.
 Iteration    2 A^-1*A deviation from orthogonality  is 5.74D-16 for   3015   2864.
 Error on total polarization charges =  0.05619
 SCF Done:  E(RM062X) =  -2097.92156059     A.U. after   15 cycles
            NFock= 15  Conv=0.72D-08     -V/T= 2.0064
 SMD-CDS (non-electrostatic) energy       (kcal/mol) =       9.65
 (included in total energy above)

 **********************************************************************

            Population analysis using the SCF density.

 **********************************************************************

 Orbital symmetries:
       Occupied  (A) (A) (A) (A) (A) (A) (A) (A) (A) (A) (A) (A)
                 (A) (A) (A) (A) (A) (A) (A) (A) (A) (A) (A) (A)
                 (A) (A) (A) (A) (A) (A) (A) (A) (A) (A) (A) (A)
                 (A) (A) (A) (A) (A) (A) (A) (A) (A) (A) (A) (A)
                 (A) (A) (A) (A) (A) (A) (A) (A) (A) (A) (A) (A)
                 (A) (A) (A) (A) (A) (A) (A) (A) (A) (A) (A) (A)
                 (A) (A) (A) (A) (A) (A) (A) (A) (A) (A) (A) (A)
                 (A) (A) (A) (A) (A) (A) (A) (A) (A) (A) (A) (A)
                 (A) (A) (A) (A)
       Virtual   (A) (A) (A) (A) (A) (A) (A) (A) (A) (A) (A) (A)
                 (A) (A) (A) (A) (A) (A) (A) (A) (A) (A) (A) (A)
                 (A) (A) (A) (A) (A) (A) (A) (A) (A) (A) (A) (A)
                 (A) (A) (A) (A) (A) (A) (A) (A) (A) (A) (A) (A)
                 (A) (A) (A) (A) (A) (A) (A) (A) (A) (A) (A) (A)
                 (A) (A) (A) (A) (A) (A) (A) (A) (A) (A) (A) (A)
                 (A) (A) (A) (A) (A) (A) (A) (A) (A) (A) (A) (A)
                 (A) (A) (A) (A) (A) (A) (A) (A) (A) (A) (A) (A)
                 (A) (A) (A) (A) (A) (A) (A) (A) (A) (A) (A) (A)
                 (A) (A) (A) (A) (A) (A) (A) (A) (A) (A) (A) (A)
                 (A) (A) (A) (A) (A) (A) (A) (A) (A) (A) (A) (A)
                 (A) (A) (A) (A) (A) (A) (A) (A) (A) (A) (A) (A)
                 (A) (A) (A) (A) (A) (A) (A) (A) (A) (A) (A) (A)
                 (A) (A) (A) (A) (A) (A) (A) (A) (A) (A) (A) (A)
                 (A) (A) (A) (A) (A) (A) (A) (A) (A) (A) (A) (A)
                 (A) (A) (A) (A) (A) (A) (A) (A) (A) (A) (A) (A)
                 (A) (A) (A) (A) (A) (A) (A) (A) (A) (A) (A) (A)
                 (A) (A) (A) (A) (A) (A) (A) (A) (A) (A) (A) (A)
                 (A) (A) (A) (A) (A) (A) (A) (A) (A) (A) (A) (A)
                 (A) (A) (A) (A) (A) (A) (A) (A) (A) (A) (A) (A)
                 (A) (A) (A) (A) (A) (A) (A) (A) (A) (A) (A) (A)
                 (A) (A) (A) (A) (A) (A) (A) (A) (A) (A) (A) (A)
                 (A) (A) (A) (A) (A) (A) (A) (A) (A) (A) (A) (A)
                 (A) (A) (A) (A) (A) (A) (A) (A) (A) (A) (A) (A)
                 (A) (A) (A) (A) (A) (A) (A) (A) (A) (A) (A) (A)
                 (A) (A) (A) (A) (A) (A) (A) (A) (A) (A) (A) (A)
                 (A) (A) (A) (A) (A) (A) (A) (A) (A) (A) (A) (A)
                 (A) (A) (A) (A) (A) (A) (A) (A) (A) (A) (A) (A)
                 (A) (A) (A) (A) (A) (A) (A) (A) (A) (A) (A) (A)
                 (A) (A) (A) (A) (A) (A) (A) (A) (A) (A) (A) (A)
                 (A) (A) (A) (A) (A) (A) (A) (A) (A) (A) (A) (A)
                 (A) (A) (A) (A) (A) (A) (A) (A) (A) (A) (A) (A)
                 (A) (A) (A) (A) (A) (A) (A) (A) (A) (A)
 The electronic state is 1-A.
 Alpha  occ. eigenvalues -- -102.69173-102.68222 -25.31605 -25.31351 -25.31347
 Alpha  occ. eigenvalues --  -19.61167 -19.60884 -19.59328 -14.81021 -14.78403
 Alpha  occ. eigenvalues --  -10.83411 -10.68511 -10.65015 -10.64845 -10.64427
 Alpha  occ. eigenvalues --  -10.64410 -10.60178 -10.59145 -10.59118 -10.57748
 Alpha  occ. eigenvalues --  -10.54301 -10.54235 -10.53293 -10.53037  -9.83726
 Alpha  occ. eigenvalues --   -9.82769  -7.56143  -7.55461  -7.55444  -7.55196
 Alpha  occ. eigenvalues --   -7.54511  -7.54464  -1.45375  -1.37652  -1.37569
 Alpha  occ. eigenvalues --   -1.18469  -1.16396  -1.05593  -1.03756  -1.01957
 Alpha  occ. eigenvalues --   -0.99586  -0.98348  -0.94860  -0.88623  -0.86847
 Alpha  occ. eigenvalues --   -0.85881  -0.84395  -0.82001  -0.76992  -0.73113
 Alpha  occ. eigenvalues --   -0.71736  -0.71666  -0.69015  -0.68621  -0.67187
 Alpha  occ. eigenvalues --   -0.65838  -0.64859  -0.61995  -0.60806  -0.58768
 Alpha  occ. eigenvalues --   -0.57971  -0.57712  -0.56821  -0.55041  -0.54325
 Alpha  occ. eigenvalues --   -0.54200  -0.53998  -0.53605  -0.52800  -0.52738
 Alpha  occ. eigenvalues --   -0.52448  -0.51786  -0.51211  -0.50960  -0.50565
 Alpha  occ. eigenvalues --   -0.49940  -0.48761  -0.46600  -0.45766  -0.45560
 Alpha  occ. eigenvalues --   -0.45415  -0.44718  -0.44081  -0.43534  -0.41467
 Alpha  occ. eigenvalues --   -0.40805  -0.40070  -0.39815  -0.39437  -0.39178
 Alpha  occ. eigenvalues --   -0.39091  -0.38875  -0.37000  -0.34856  -0.32963
 Alpha  occ. eigenvalues --   -0.32718  -0.31872  -0.31461  -0.31199  -0.29080
 Alpha virt. eigenvalues --   -0.01797  -0.01012   0.00736   0.02062   0.02456
 Alpha virt. eigenvalues --    0.03066   0.03621   0.03957   0.04313   0.04562
 Alpha virt. eigenvalues --    0.04809   0.05204   0.05442   0.05795   0.06202
 Alpha virt. eigenvalues --    0.06593   0.06848   0.07177   0.07372   0.07718
 Alpha virt. eigenvalues --    0.07833   0.08528   0.08786   0.08840   0.09041
 Alpha virt. eigenvalues --    0.09555   0.09758   0.10024   0.10128   0.10644
 Alpha virt. eigenvalues --    0.10930   0.11290   0.11721   0.11992   0.12143
 Alpha virt. eigenvalues --    0.12294   0.12947   0.13370   0.13623   0.13935
 Alpha virt. eigenvalues --    0.14555   0.14614   0.15529   0.15644   0.15969
 Alpha virt. eigenvalues --    0.16251   0.16520   0.16709   0.17260   0.17803
 Alpha virt. eigenvalues --    0.17932   0.18563   0.18761   0.19000   0.19124
 Alpha virt. eigenvalues --    0.19914   0.20056   0.20836   0.21098   0.21730
 Alpha virt. eigenvalues --    0.22001   0.22337   0.22736   0.23025   0.23443
 Alpha virt. eigenvalues --    0.23644   0.24031   0.24300   0.24389   0.24627
 Alpha virt. eigenvalues --    0.25337   0.25417   0.25528   0.25863   0.26055
 Alpha virt. eigenvalues --    0.26690   0.27032   0.27515   0.27682   0.28109
 Alpha virt. eigenvalues --    0.28238   0.28883   0.28916   0.29197   0.29295
 Alpha virt. eigenvalues --    0.29438   0.30349   0.30572   0.30759   0.31135
 Alpha virt. eigenvalues --    0.31463   0.31641   0.31790   0.32089   0.32792
 Alpha virt. eigenvalues --    0.33202   0.33518   0.33859   0.33983   0.34739
 Alpha virt. eigenvalues --    0.35019   0.35360   0.35799   0.36033   0.36202
 Alpha virt. eigenvalues --    0.36492   0.37492   0.37590   0.37871   0.38404
 Alpha virt. eigenvalues --    0.38608   0.39272   0.39948   0.40231   0.40744
 Alpha virt. eigenvalues --    0.40966   0.41526   0.41795   0.42345   0.42844
 Alpha virt. eigenvalues --    0.43704   0.44723   0.45383   0.46347   0.46961
 Alpha virt. eigenvalues --    0.47306   0.47745   0.48603   0.48912   0.49887
 Alpha virt. eigenvalues --    0.50015   0.51429   0.53115   0.54155   0.55374
 Alpha virt. eigenvalues --    0.57205   0.57719   0.60393   0.61955   0.66275
 Alpha virt. eigenvalues --    0.67007   0.67737   0.68796   0.70478   0.70939
 Alpha virt. eigenvalues --    0.71233   0.71586   0.72658   0.72996   0.73448
 Alpha virt. eigenvalues --    0.73827   0.74321   0.74818   0.75719   0.76179
 Alpha virt. eigenvalues --    0.76430   0.76962   0.77358   0.78352   0.78896
 Alpha virt. eigenvalues --    0.79775   0.80179   0.80981   0.81994   0.82450
 Alpha virt. eigenvalues --    0.82858   0.83579   0.84790   0.85508   0.86190
 Alpha virt. eigenvalues --    0.87133   0.87587   0.88336   0.88505   0.89560
 Alpha virt. eigenvalues --    0.91170   0.91673   0.93229   0.93998   0.94653
 Alpha virt. eigenvalues --    0.95867   0.96593   0.96884   0.97518   0.97976
 Alpha virt. eigenvalues --    0.98645   0.99801   1.00149   1.00364   1.00783
 Alpha virt. eigenvalues --    1.02146   1.03099   1.04311   1.04874   1.05895
 Alpha virt. eigenvalues --    1.06415   1.07627   1.08445   1.08562   1.09469
 Alpha virt. eigenvalues --    1.10291   1.11343   1.12342   1.13484   1.14517
 Alpha virt. eigenvalues --    1.15203   1.16453   1.17032   1.17798   1.18616
 Alpha virt. eigenvalues --    1.19613   1.19894   1.20297   1.21004   1.21786
 Alpha virt. eigenvalues --    1.22641   1.24387   1.25096   1.25584   1.25932
 Alpha virt. eigenvalues --    1.27263   1.28957   1.29259   1.31456   1.34050
 Alpha virt. eigenvalues --    1.34134   1.35873   1.37741   1.38409   1.39444
 Alpha virt. eigenvalues --    1.41111   1.41846   1.42432   1.43391   1.44110
 Alpha virt. eigenvalues --    1.44963   1.47118   1.47911   1.49084   1.49513
 Alpha virt. eigenvalues --    1.50166   1.51100   1.51825   1.53517   1.53731
 Alpha virt. eigenvalues --    1.53835   1.55337   1.56786   1.58738   1.59601
 Alpha virt. eigenvalues --    1.60277   1.61544   1.62517   1.65579   1.66906
 Alpha virt. eigenvalues --    1.67352   1.68159   1.68822   1.69304   1.70567
 Alpha virt. eigenvalues --    1.72233   1.72993   1.73527   1.73904   1.74627
 Alpha virt. eigenvalues --    1.75137   1.78300   1.78520   1.79253   1.82936
 Alpha virt. eigenvalues --    1.83501   1.83765   1.84641   1.85966   1.87086
 Alpha virt. eigenvalues --    1.87277   1.87674   1.88325   1.89157   1.89585
 Alpha virt. eigenvalues --    1.90044   1.90486   1.90695   1.91482   1.91777
 Alpha virt. eigenvalues --    1.92586   1.93678   1.94827   1.96372   1.96955
 Alpha virt. eigenvalues --    1.97847   1.98208   1.99952   2.01762   2.02086
 Alpha virt. eigenvalues --    2.02685   2.04136   2.04394   2.04912   2.05227
 Alpha virt. eigenvalues --    2.06198   2.07309   2.07526   2.08071   2.08506
 Alpha virt. eigenvalues --    2.10351   2.10768   2.11065   2.12478   2.14067
 Alpha virt. eigenvalues --    2.14329   2.15658   2.16281   2.17945   2.20084
 Alpha virt. eigenvalues --    2.21068   2.21569   2.23699   2.26252   2.27146
 Alpha virt. eigenvalues --    2.27740   2.29388   2.29488   2.31951   2.32708
 Alpha virt. eigenvalues --    2.34972   2.35328   2.36631   2.37663   2.37958
 Alpha virt. eigenvalues --    2.40252   2.41193   2.42907   2.46542   2.48407
 Alpha virt. eigenvalues --    2.50526   2.54372   2.55247   2.56770   2.58764
 Alpha virt. eigenvalues --    2.61586   2.64238   2.65014   2.65198   2.66625
 Alpha virt. eigenvalues --    2.68936   2.71352   2.72759   2.74218   2.76534
 Alpha virt. eigenvalues --    2.77320   2.78011   2.79693   2.81260   2.85089
 Alpha virt. eigenvalues --    2.85520   2.93037   2.94332   2.97330   3.01552
 Alpha virt. eigenvalues --    3.10011   3.11551   3.13410   3.15849   3.19260
 Alpha virt. eigenvalues --    3.24847   3.25159   3.25750   3.30015   3.34943
 Alpha virt. eigenvalues --    4.20460   4.21608   4.25407   4.28670   4.29926
 Alpha virt. eigenvalues --    4.30881   4.35884   4.36999   4.38498   4.41860
 Alpha virt. eigenvalues --    4.44744   4.46926   4.47596   4.48814   4.49041
 Alpha virt. eigenvalues --    4.52267   4.61260   4.63181   4.69732   4.73182
 Alpha virt. eigenvalues --    4.77270   5.47646   5.97285   6.83992
          Condensed to atoms (all electrons):
               1          2          3          4          5          6
     1  C   13.931325  -2.048809  -0.559665   0.590122  -0.724914  -1.945864
     2  C   -2.048809  19.995355  -3.504594  -2.722498   3.058644  -9.446118
     3  C   -0.559665  -3.504594  10.405040  -2.317164  -2.603760   4.650029
     4  C    0.590122  -2.722498  -2.317164  18.944946   0.307480  -4.977928
     5  C   -0.724914   3.058644  -2.603760   0.307480  11.056464  -4.453991
     6  C   -1.945864  -9.446118   4.650029  -4.977928  -4.453991  21.898250
     7  N   -0.056752   0.071772   0.101733  -0.119590  -0.056538   0.031618
     8  C   -0.331841   0.021869  -0.251872  -0.866838  -0.187858  -0.069075
     9  N   -0.003928   0.027177   0.038726  -0.369377   0.050948   0.032575
    10  O   -0.018345   0.023656  -0.058477   0.007394   0.031084  -0.043030
    11  C   -0.024139   0.006541  -0.029812  -0.495105  -0.057655  -0.002620
    12  C   -0.000162  -0.001235  -0.003830   0.007745  -0.005483  -0.000138
    13  C   -0.000173   0.000061  -0.000103  -0.005895  -0.001588  -0.000253
    14  H   -0.001734   0.011946   0.005382  -0.087826   0.024498   0.006046
    15  H    0.000038  -0.000123   0.001958   0.012948  -0.000826  -0.000104
    16  H   -0.000011   0.000076  -0.000753  -0.003362   0.000610  -0.000016
    17  H   -0.000068  -0.000050   0.000403  -0.000247  -0.000847   0.000276
    18  H   -0.000001  -0.000004   0.000027  -0.000536   0.000283   0.000048
    19  H   -0.000005   0.000006  -0.000125  -0.000238  -0.000334  -0.000034
    20  H   -0.000000   0.000000   0.000004   0.000009  -0.000024  -0.000003
    21  H   -0.000000  -0.000000   0.000000  -0.000023   0.000000   0.000000
    22  H    0.000000  -0.000000  -0.000006   0.000048   0.000004   0.000001
    23  H    0.198521   0.053896  -0.020279  -0.021388  -0.026539   0.119552
    24  H    0.047959   0.007303  -0.012414   0.023159  -0.059285   0.299676
    25  C   -1.743462   0.400245  -0.023085  -1.008927  -0.140806  -0.224640
    26  F   -0.021117  -0.004881  -0.005026   0.028658   0.067830  -0.019393
    27  F    0.177148  -0.191139   0.010514   0.020193  -0.010412  -0.010059
    28  F    0.206333  -0.225447   0.012760   0.040767  -0.003332   0.011329
    29  Cl  -0.062445   0.006002   0.061783  -0.317315  -0.053457   0.139847
    30  Cl   0.012480  -0.126773   0.072908  -0.283156  -0.112990   0.090047
    31  O   -0.000251  -0.000618   0.001379   0.000413  -0.001182  -0.000153
    32  O   -0.000514   0.004685  -0.023195   0.058853  -0.005451  -0.004726
    33  C   -0.000838   0.004454   0.000266  -0.029967   0.009668  -0.000133
    34  C   -0.000557   0.000341  -0.009994   0.002127   0.003816  -0.002307
    35  C    0.000061   0.000510   0.001021  -0.003702   0.000337   0.000585
    36  H   -0.000000   0.000007   0.000031  -0.000171   0.000006   0.000001
    37  H   -0.000000  -0.000006   0.000003   0.000109   0.000018   0.000001
    38  H   -0.000015  -0.000142  -0.000412   0.000577  -0.000045  -0.000010
    39  H    0.000000  -0.000002   0.000020  -0.000010  -0.000001   0.000000
    40  H   -0.000001   0.000185   0.000130  -0.000870   0.000094   0.000028
               7          8          9         10         11         12
     1  C   -0.056752  -0.331841  -0.003928  -0.018345  -0.024139  -0.000162
     2  C    0.071772   0.021869   0.027177   0.023656   0.006541  -0.001235
     3  C    0.101733  -0.251872   0.038726  -0.058477  -0.029812  -0.003830
     4  C   -0.119590  -0.866838  -0.369377   0.007394  -0.495105   0.007745
     5  C   -0.056538  -0.187858   0.050948   0.031084  -0.057655  -0.005483
     6  C    0.031618  -0.069075   0.032575  -0.043030  -0.002620  -0.000138
     7  N    7.736893   0.279557  -0.330558  -0.209111  -0.119747  -0.013930
     8  C    0.279557   6.718186   0.328186   0.723750  -0.751715   0.059109
     9  N   -0.330558   0.328186   7.617998  -0.161320   0.346938  -0.038412
    10  O   -0.209111   0.723750  -0.161320   8.571140  -0.088597   0.008954
    11  C   -0.119747  -0.751715   0.346938  -0.088597   6.960380  -0.273565
    12  C   -0.013930   0.059109  -0.038412   0.008954  -0.273565   6.141359
    13  C    0.000599  -0.031842  -0.000469  -0.001856  -0.028171  -0.082075
    14  H    0.188261  -0.000030   0.034249   0.005019   0.012355   0.000830
    15  H    0.031442   0.021625   0.206767   0.005151  -0.056246  -0.006148
    16  H    0.003114  -0.032831  -0.048557   0.003646   0.423212  -0.033027
    17  H   -0.002894  -0.026676  -0.056429   0.002375   0.443840  -0.052283
    18  H    0.000475   0.001802   0.008515  -0.000067  -0.096438   0.431196
    19  H   -0.000360  -0.004556   0.006092  -0.000160  -0.081352   0.415159
    20  H    0.000031   0.001445   0.000535  -0.000043  -0.012227  -0.065214
    21  H    0.000009  -0.001389   0.000400   0.000006   0.026339  -0.105248
    22  H    0.000021   0.002629   0.000473  -0.000026  -0.011870  -0.066870
    23  H    0.000124   0.001190  -0.000001  -0.000008   0.000007   0.000000
    24  H   -0.000252   0.000729  -0.000011  -0.000048   0.000011  -0.000000
    25  C    0.008453  -0.091741   0.001337  -0.003999  -0.002717  -0.000022
    26  F   -0.000019   0.000202  -0.000001  -0.000009  -0.000001   0.000000
    27  F   -0.000032  -0.000656  -0.000000   0.000001  -0.000004   0.000000
    28  F    0.000037   0.000927  -0.000000  -0.000003   0.000007  -0.000000
    29  Cl   0.053441   0.002702   0.003423  -0.105030   0.018853  -0.000982
    30  Cl   0.042868   0.090768  -0.001259   0.002402   0.008110   0.000963
    31  O    0.012080   0.015238  -0.017882  -0.000180  -0.022854   0.009555
    32  O   -0.033125  -0.021813   0.008193  -0.000488   0.008234  -0.001575
    33  C   -0.005108  -0.003212  -0.007105   0.000248   0.004029  -0.001455
    34  C   -0.011485  -0.007156  -0.005940  -0.000229   0.009679  -0.003815
    35  C    0.001828  -0.000303   0.001296   0.000041  -0.001133   0.000079
    36  H    0.000025  -0.000015   0.000031   0.000000   0.000043  -0.000016
    37  H    0.000009  -0.000050  -0.000045  -0.000000  -0.000085   0.000097
    38  H   -0.000016  -0.000012  -0.000013  -0.000000  -0.000015   0.000013
    39  H    0.000003   0.000010  -0.000001   0.000000  -0.000002   0.000001
    40  H    0.000033   0.000053   0.000014   0.000000   0.000016  -0.000004
              13         14         15         16         17         18
     1  C   -0.000173  -0.001734   0.000038  -0.000011  -0.000068  -0.000001
     2  C    0.000061   0.011946  -0.000123   0.000076  -0.000050  -0.000004
     3  C   -0.000103   0.005382   0.001958  -0.000753   0.000403   0.000027
     4  C   -0.005895  -0.087826   0.012948  -0.003362  -0.000247  -0.000536
     5  C   -0.001588   0.024498  -0.000826   0.000610  -0.000847   0.000283
     6  C   -0.000253   0.006046  -0.000104  -0.000016   0.000276   0.000048
     7  N    0.000599   0.188261   0.031442   0.003114  -0.002894   0.000475
     8  C   -0.031842  -0.000030   0.021625  -0.032831  -0.026676   0.001802
     9  N   -0.000469   0.034249   0.206767  -0.048557  -0.056429   0.008515
    10  O   -0.001856   0.005019   0.005151   0.003646   0.002375  -0.000067
    11  C   -0.028171   0.012355  -0.056246   0.423212   0.443840  -0.096438
    12  C   -0.082075   0.000830  -0.006148  -0.033027  -0.052283   0.431196
    13  C    5.756535   0.000113  -0.001333  -0.003844   0.000379  -0.029890
    14  H    0.000113   0.257081   0.002858   0.000005   0.000001   0.000001
    15  H   -0.001333   0.002858   0.269595   0.001755   0.001813   0.000631
    16  H   -0.003844   0.000005   0.001755   0.496214  -0.040213   0.003733
    17  H    0.000379   0.000001   0.001813  -0.040213   0.497972  -0.005303
    18  H   -0.029890   0.000001   0.000631   0.003733  -0.005303   0.488250
    19  H   -0.019136   0.000002   0.000753  -0.005188   0.003787  -0.031194
    20  H    0.419510   0.000000   0.000000  -0.000322   0.002693  -0.004637
    21  H    0.431055  -0.000000  -0.000002  -0.000054  -0.000051  -0.003124
    22  H    0.419546  -0.000000  -0.000000   0.002810  -0.000296   0.003778
    23  H    0.000000  -0.000003   0.000000  -0.000000   0.000000  -0.000000
    24  H   -0.000000   0.000001  -0.000000   0.000000  -0.000000  -0.000000
    25  C   -0.000010   0.000008  -0.000007  -0.000003  -0.000001  -0.000000
    26  F   -0.000000  -0.000000   0.000000  -0.000000   0.000000  -0.000000
    27  F   -0.000000  -0.000000  -0.000000   0.000000  -0.000000   0.000000
    28  F    0.000000   0.000000  -0.000000  -0.000000   0.000000  -0.000000
    29  Cl   0.000437  -0.000958  -0.000073   0.000940  -0.001261   0.000087
    30  Cl   0.000009   0.011616   0.000139   0.000042  -0.000019  -0.000002
    31  O    0.002365  -0.000448   0.026821   0.000017  -0.000047  -0.000107
    32  O    0.000162   0.036963   0.003158  -0.000002  -0.000002   0.000005
    33  C   -0.000859  -0.002011  -0.005026   0.000118   0.000229  -0.000541
    34  C    0.000233   0.002483   0.001750   0.000018   0.000050  -0.000312
    35  C   -0.000075  -0.000038  -0.000139   0.000001  -0.000001  -0.000019
    36  H   -0.000002  -0.000003  -0.000003  -0.000000   0.000000   0.000000
    37  H    0.000014  -0.000002   0.000000   0.000000  -0.000000  -0.000000
    38  H    0.000000   0.000001   0.000000   0.000000  -0.000000  -0.000000
    39  H   -0.000000  -0.000000   0.000000  -0.000000  -0.000000  -0.000000
    40  H   -0.000000   0.000001  -0.000000  -0.000000   0.000000   0.000000
              19         20         21         22         23         24
     1  C   -0.000005  -0.000000  -0.000000   0.000000   0.198521   0.047959
     2  C    0.000006   0.000000  -0.000000  -0.000000   0.053896   0.007303
     3  C   -0.000125   0.000004   0.000000  -0.000006  -0.020279  -0.012414
     4  C   -0.000238   0.000009  -0.000023   0.000048  -0.021388   0.023159
     5  C   -0.000334  -0.000024   0.000000   0.000004  -0.026539  -0.059285
     6  C   -0.000034  -0.000003   0.000000   0.000001   0.119552   0.299676
     7  N   -0.000360   0.000031   0.000009   0.000021   0.000124  -0.000252
     8  C   -0.004556   0.001445  -0.001389   0.002629   0.001190   0.000729
     9  N    0.006092   0.000535   0.000400   0.000473  -0.000001  -0.000011
    10  O   -0.000160  -0.000043   0.000006  -0.000026  -0.000008  -0.000048
    11  C   -0.081352  -0.012227   0.026339  -0.011870   0.000007   0.000011
    12  C    0.415159  -0.065214  -0.105248  -0.066870   0.000000  -0.000000
    13  C   -0.019136   0.419510   0.431055   0.419546   0.000000  -0.000000
    14  H    0.000002   0.000000  -0.000000  -0.000000  -0.000003   0.000001
    15  H    0.000753   0.000000  -0.000002  -0.000000   0.000000  -0.000000
    16  H   -0.005188  -0.000322  -0.000054   0.002810  -0.000000   0.000000
    17  H    0.003787   0.002693  -0.000051  -0.000296   0.000000  -0.000000
    18  H   -0.031194  -0.004637  -0.003124   0.003778  -0.000000  -0.000000
    19  H    0.488244   0.003784  -0.003118  -0.004660  -0.000000   0.000000
    20  H    0.003784   0.487627  -0.023884  -0.028509  -0.000000  -0.000000
    21  H   -0.003118  -0.023884   0.481829  -0.023956  -0.000000  -0.000000
    22  H   -0.004660  -0.028509  -0.023956   0.487431   0.000000   0.000000
    23  H   -0.000000  -0.000000  -0.000000   0.000000   0.399498  -0.000102
    24  H    0.000000  -0.000000  -0.000000   0.000000  -0.000102   0.401702
    25  C   -0.000000  -0.000000  -0.000000   0.000000  -0.001768  -0.004713
    26  F   -0.000000  -0.000000  -0.000000  -0.000000   0.000255   0.007831
    27  F   -0.000000  -0.000000  -0.000000   0.000000   0.000507  -0.000009
    28  F   -0.000000   0.000000  -0.000000   0.000000   0.000498  -0.000081
    29  Cl  -0.000018   0.000002   0.000001   0.000000   0.000448  -0.003635
    30  Cl   0.000012   0.000000   0.000000  -0.000000  -0.001102   0.000387
    31  O   -0.000451   0.000001  -0.000020  -0.000001   0.000000  -0.000000
    32  O    0.000014   0.000000  -0.000000   0.000000   0.000002  -0.000000
    33  C   -0.000548  -0.000007  -0.000041  -0.000021  -0.000006   0.000001
    34  C    0.000008  -0.000003   0.000018  -0.000006  -0.000002   0.000000
    35  C   -0.000013  -0.000000   0.000000  -0.000000   0.000000  -0.000000
    36  H    0.000000   0.000000  -0.000000   0.000000  -0.000000   0.000000
    37  H   -0.000000   0.000000  -0.000000   0.000000   0.000000   0.000000
    38  H   -0.000000  -0.000000  -0.000000  -0.000000  -0.000000   0.000000
    39  H   -0.000000  -0.000000   0.000000  -0.000000   0.000000   0.000000
    40  H    0.000000  -0.000000   0.000000  -0.000000  -0.000000  -0.000000
              25         26         27         28         29         30
     1  C   -1.743462  -0.021117   0.177148   0.206333  -0.062445   0.012480
     2  C    0.400245  -0.004881  -0.191139  -0.225447   0.006002  -0.126773
     3  C   -0.023085  -0.005026   0.010514   0.012760   0.061783   0.072908
     4  C   -1.008927   0.028658   0.020193   0.040767  -0.317315  -0.283156
     5  C   -0.140806   0.067830  -0.010412  -0.003332  -0.053457  -0.112990
     6  C   -0.224640  -0.019393  -0.010059   0.011329   0.139847   0.090047
     7  N    0.008453  -0.000019  -0.000032   0.000037   0.053441   0.042868
     8  C   -0.091741   0.000202  -0.000656   0.000927   0.002702   0.090768
     9  N    0.001337  -0.000001  -0.000000  -0.000000   0.003423  -0.001259
    10  O   -0.003999  -0.000009   0.000001  -0.000003  -0.105030   0.002402
    11  C   -0.002717  -0.000001  -0.000004   0.000007   0.018853   0.008110
    12  C   -0.000022   0.000000   0.000000  -0.000000  -0.000982   0.000963
    13  C   -0.000010  -0.000000  -0.000000   0.000000   0.000437   0.000009
    14  H    0.000008  -0.000000  -0.000000   0.000000  -0.000958   0.011616
    15  H   -0.000007   0.000000  -0.000000  -0.000000  -0.000073   0.000139
    16  H   -0.000003  -0.000000   0.000000  -0.000000   0.000940   0.000042
    17  H   -0.000001   0.000000  -0.000000   0.000000  -0.001261  -0.000019
    18  H   -0.000000  -0.000000   0.000000  -0.000000   0.000087  -0.000002
    19  H   -0.000000  -0.000000  -0.000000  -0.000000  -0.000018   0.000012
    20  H   -0.000000  -0.000000  -0.000000   0.000000   0.000002   0.000000
    21  H   -0.000000  -0.000000  -0.000000  -0.000000   0.000001   0.000000
    22  H    0.000000  -0.000000   0.000000   0.000000   0.000000  -0.000000
    23  H   -0.001768   0.000255   0.000507   0.000498   0.000448  -0.001102
    24  H   -0.004713   0.007831  -0.000009  -0.000081  -0.003635   0.000387
    25  C    7.020384   0.075671   0.136475   0.090718   0.004328  -0.036595
    26  F    0.075671   9.279676  -0.037382  -0.037281  -0.000554  -0.000041
    27  F    0.136475  -0.037382   9.226800  -0.048845  -0.000128  -0.000695
    28  F    0.090718  -0.037281  -0.048845   9.223576  -0.000333   0.000081
    29  Cl   0.004328  -0.000554  -0.000128  -0.000333  16.999847  -0.005139
    30  Cl  -0.036595  -0.000041  -0.000695   0.000081  -0.005139  16.999164
    31  O   -0.000032  -0.000000  -0.000000  -0.000000   0.000212  -0.001010
    32  O   -0.000298   0.000000  -0.000001   0.000000   0.000663  -0.009188
    33  C    0.000161  -0.000000   0.000000   0.000001   0.000229   0.004548
    34  C    0.000052  -0.000000   0.000000   0.000000   0.000064  -0.004206
    35  C    0.000015  -0.000000  -0.000000  -0.000000  -0.000015   0.002279
    36  H   -0.000000  -0.000000  -0.000000  -0.000000   0.000000   0.000051
    37  H    0.000000   0.000000   0.000000   0.000000   0.000000  -0.000036
    38  H   -0.000000   0.000000  -0.000000   0.000000   0.000000  -0.000051
    39  H   -0.000000   0.000000  -0.000000  -0.000000  -0.000000  -0.000007
    40  H   -0.000001  -0.000000  -0.000000  -0.000000  -0.000001   0.000141
              31         32         33         34         35         36
     1  C   -0.000251  -0.000514  -0.000838  -0.000557   0.000061  -0.000000
     2  C   -0.000618   0.004685   0.004454   0.000341   0.000510   0.000007
     3  C    0.001379  -0.023195   0.000266  -0.009994   0.001021   0.000031
     4  C    0.000413   0.058853  -0.029967   0.002127  -0.003702  -0.000171
     5  C   -0.001182  -0.005451   0.009668   0.003816   0.000337   0.000006
     6  C   -0.000153  -0.004726  -0.000133  -0.002307   0.000585   0.000001
     7  N    0.012080  -0.033125  -0.005108  -0.011485   0.001828   0.000025
     8  C    0.015238  -0.021813  -0.003212  -0.007156  -0.000303  -0.000015
     9  N   -0.017882   0.008193  -0.007105  -0.005940   0.001296   0.000031
    10  O   -0.000180  -0.000488   0.000248  -0.000229   0.000041   0.000000
    11  C   -0.022854   0.008234   0.004029   0.009679  -0.001133   0.000043
    12  C    0.009555  -0.001575  -0.001455  -0.003815   0.000079  -0.000016
    13  C    0.002365   0.000162  -0.000859   0.000233  -0.000075  -0.000002
    14  H   -0.000448   0.036963  -0.002011   0.002483  -0.000038  -0.000003
    15  H    0.026821   0.003158  -0.005026   0.001750  -0.000139  -0.000003
    16  H    0.000017  -0.000002   0.000118   0.000018   0.000001  -0.000000
    17  H   -0.000047  -0.000002   0.000229   0.000050  -0.000001   0.000000
    18  H   -0.000107   0.000005  -0.000541  -0.000312  -0.000019   0.000000
    19  H   -0.000451   0.000014  -0.000548   0.000008  -0.000013   0.000000
    20  H    0.000001   0.000000  -0.000007  -0.000003  -0.000000   0.000000
    21  H   -0.000020  -0.000000  -0.000041   0.000018   0.000000  -0.000000
    22  H   -0.000001   0.000000  -0.000021  -0.000006  -0.000000   0.000000
    23  H    0.000000   0.000002  -0.000006  -0.000002   0.000000  -0.000000
    24  H   -0.000000  -0.000000   0.000001   0.000000  -0.000000   0.000000
    25  C   -0.000032  -0.000298   0.000161   0.000052   0.000015  -0.000000
    26  F   -0.000000   0.000000  -0.000000  -0.000000  -0.000000  -0.000000
    27  F   -0.000000  -0.000001   0.000000   0.000000  -0.000000  -0.000000
    28  F   -0.000000   0.000000   0.000001   0.000000  -0.000000  -0.000000
    29  Cl   0.000212   0.000663   0.000229   0.000064  -0.000015   0.000000
    30  Cl  -0.001010  -0.009188   0.004548  -0.004206   0.002279   0.000051
    31  O    8.645910  -0.174037   0.431911  -0.250050   0.032125  -0.002634
    32  O   -0.174037   8.809418   0.272106  -0.098367   0.030298   0.001872
    33  C    0.431911   0.272106   5.112838  -0.276930  -0.104065  -0.048239
    34  C   -0.250050  -0.098367  -0.276930   6.539478  -0.036299   0.409771
    35  C    0.032125   0.030298  -0.104065  -0.036299   5.661168  -0.044595
    36  H   -0.002634   0.001872  -0.048239   0.409771  -0.044595   0.457573
    37  H   -0.001694   0.001783  -0.068552   0.427755  -0.043014  -0.021842
    38  H    0.000071  -0.001855  -0.009273  -0.051281   0.409091  -0.003867
    39  H   -0.000289   0.001195   0.029691  -0.075376   0.390113  -0.002274
    40  H   -0.000115  -0.001932  -0.014712  -0.044054   0.407439   0.003406
              37         38         39         40
     1  C   -0.000000  -0.000015   0.000000  -0.000001
     2  C   -0.000006  -0.000142  -0.000002   0.000185
     3  C    0.000003  -0.000412   0.000020   0.000130
     4  C    0.000109   0.000577  -0.000010  -0.000870
     5  C    0.000018  -0.000045  -0.000001   0.000094
     6  C    0.000001  -0.000010   0.000000   0.000028
     7  N    0.000009  -0.000016   0.000003   0.000033
     8  C   -0.000050  -0.000012   0.000010   0.000053
     9  N   -0.000045  -0.000013  -0.000001   0.000014
    10  O   -0.000000  -0.000000   0.000000   0.000000
    11  C   -0.000085  -0.000015  -0.000002   0.000016
    12  C    0.000097   0.000013   0.000001  -0.000004
    13  C    0.000014   0.000000  -0.000000  -0.000000
    14  H   -0.000002   0.000001  -0.000000   0.000001
    15  H    0.000000   0.000000   0.000000  -0.000000
    16  H    0.000000   0.000000  -0.000000  -0.000000
    17  H   -0.000000  -0.000000  -0.000000   0.000000
    18  H   -0.000000  -0.000000  -0.000000   0.000000
    19  H   -0.000000  -0.000000  -0.000000   0.000000
    20  H    0.000000  -0.000000  -0.000000  -0.000000
    21  H   -0.000000  -0.000000   0.000000   0.000000
    22  H    0.000000  -0.000000  -0.000000  -0.000000
    23  H    0.000000  -0.000000   0.000000  -0.000000
    24  H    0.000000   0.000000   0.000000  -0.000000
    25  C    0.000000  -0.000000  -0.000000  -0.000001
    26  F    0.000000   0.000000   0.000000  -0.000000
    27  F    0.000000  -0.000000  -0.000000  -0.000000
    28  F    0.000000   0.000000  -0.000000  -0.000000
    29  Cl   0.000000   0.000000  -0.000000  -0.000001
    30  Cl  -0.000036  -0.000051  -0.000007   0.000141
    31  O   -0.001694   0.000071  -0.000289  -0.000115
    32  O    0.001783  -0.001855   0.001195  -0.001932
    33  C   -0.068552  -0.009273   0.029691  -0.014712
    34  C    0.427755  -0.051281  -0.075376  -0.044054
    35  C   -0.043014   0.409091   0.390113   0.407439
    36  H   -0.021842  -0.003867  -0.002274   0.003406
    37  H    0.457200   0.003389  -0.002290  -0.003901
    38  H    0.003389   0.487055  -0.025531  -0.026458
    39  H   -0.002290  -0.025531   0.497511  -0.025433
    40  H   -0.003901  -0.026458  -0.025433   0.487739
 Mulliken charges:
               1
     1  C   -1.618375
     2  C    0.577709
     3  C    0.060447
     4  C   -0.413416
     5  C   -0.104464
     6  C   -0.079315
     7  N   -0.604910
     8  C    0.411501
     9  N   -0.672567
    10  O   -0.693841
    11  C   -0.112523
    12  C   -0.319572
    13  C   -0.823444
    14  H    0.493334
    15  H    0.480829
    16  H    0.231874
    17  H    0.232868
    18  H    0.233345
    19  H    0.233626
    20  H    0.219229
    21  H    0.221252
    22  H    0.219481
    23  H    0.296699
    24  H    0.291791
    25  C    1.544979
    26  F   -0.334420
    27  F   -0.272273
    28  F   -0.271713
    29  Cl   0.258035
    30  Cl   0.243252
    31  O   -0.704039
    32  O   -0.861038
    33  C    0.708149
    34  C   -0.519271
    35  C   -0.704880
    36  H    0.250846
    37  H    0.251142
    38  H    0.218799
    39  H    0.212673
    40  H    0.218202
 Sum of Mulliken charges =  -1.00000
[...]
 0211,-0.00000150,-0.00016267,-0.00002623,0.00001661,0.00001834,0.00005
 085,0.00000104,-0.00003623,-0.00000341,0.00000820,-0.00002189,-0.00003
 816,0.00001105,0.00000298,0.00000981,-0.00000615,-0.00000885,0.0000034
 6,-0.00000050,0.00000317,-0.00000068,-0.00002530,0.00030415,-0.0000041
 3,-0.00000665,0.00009643,0.00003753,-0.00000082,-0.00000075,-0.0000022
 6,-0.00000322,-0.00000060,-0.00000207,0.00000096,0.00000225,-0.0000026
 4,0.00000310,0.00001099,0.00000303,0.00000043,0.,0.00000039,0.00000046
 ,-0.00000104,-0.00000014,-0.00000021,-0.00000052,-0.00000056,0.0000002
 5,-0.00000037,-0.00000035,0.00000082,-0.00000049,-0.00000010,-0.000007
 28,0.00000270,-0.00000211,0.00000096,-0.00000144,0.00000044,0.00000264
 ,0.00000014,0.00000163,0.00000220,-0.00000043,-0.00000070,-0.00000129,
 -0.00000117,0.00000088,0.00002180,-0.00001396,-0.00000749,0.00014623,0
 .00098384,-0.00077336,0.00135521,-0.00112618,-0.00391809,0.01059143,-0
 .01219660,0.01112087,-0.08965414,0.08176387,-0.11978600,-0.00330036,0.
 00282207,-0.00354901,0.09924872,-0.08783214,0.13011189,-0.00000536,0.0
 0000280,-0.00000065,0.00000062,0.00000023,-0.00000052,-0.00000445,-0.0
 0000625,-0.00000120,0.00004229,-0.00000154,0.00001978,-0.00001438,0.00
 000625,-0.00000047,0.00000390,0.00000179,-0.00000310,-0.00000519,0.000
 16762,0.00009572,-0.00012898,0.00003634,-0.00006922,0.00005289,-0.0000
 9714,-0.00004218,0.00003481,-0.00001204,0.00001352,0.00001801,-0.00000
 728,0.00000804,-0.00000218,0.00000008,0.00000207,0.00000082,0.00000022
 ,-0.00000041,0.00002701,-0.00024784,-0.00010923,-0.00003517,0.00017338
 ,0.00011084,-0.00000153,-0.00000143,-0.00000407,-0.00000285,-0.0000019
 2,-0.00000347,0.00000005,0.00000045,-0.00000187,-0.00000026,0.00000067
 ,0.00000120,-0.00000020,-0.00000019,-0.00000021,-0.00000036,-0.0000003
 0,-0.00000063,-0.00000017,-0.00000008,-0.00000045,-0.00000027,0.000000
 20,0.00000037,-0.00000077,0.00000063,0.00000032,0.00000634,-0.00000363
 ,0.00000246,-0.00000080,0.00000185,-0.00000076,-0.00000250,0.00000014,
 -0.00000181,-0.00000186,0.00000060,0.00000019,0.00000288,0.00000234,-0
 .00000042,-0.00000679,0.00000427,0.00000359,-0.00000472,-0.00144057,-0
 .00210481,-0.00004547,0.00253027,0.00040643,-0.00511337,-0.00062407,0.
 00602961,-0.10518130,-0.03096714,0.10933561,-0.01352997,-0.00679181,0.
 02350766,0.00985867,0.00377833,-0.01765933,0.11612030,0.00001531,-0.00
 000918,0.00000209,-0.00000135,0.00000349,0.00000061,0.00001348,0.00000
 564,0.00001229,-0.00012586,0.00002845,-0.00004647,0.00003696,-0.000018
 72,0.00000044,-0.00001114,-0.00000427,0.00000678,0.00002899,-0.0004126
 9,-0.00024310,0.00014814,0.00000312,0.00016039,-0.00004128,0.00007156,
 0.00001500,-0.00003409,-0.00005280,-0.00009015,0.00000589,0.00000265,0
 .00001197,0.00000228,0.00000165,-0.00000897,-0.00000255,0.00000001,0.0
 0000226,-0.00007304,0.00065275,0.00036453,0.00004393,0.00003056,0.0000
 3694,-0.00000188,-0.00000010,-0.00000313,-0.00000300,-0.00000102,-0.00
 000225,0.00000248,0.00000030,0.00000203,-0.00000130,-0.00000273,-0.000
 00109,-0.00000030,-0.00000006,-0.00000045,-0.00000065,-0.00000007,-0.0
 0000056,-0.00000005,-0.00000010,-0.00000033,0.00000116,-0.00000110,-0.
 00000045,0.00000211,-0.00000131,-0.00000013,-0.00002293,0.00001208,-0.
 00000427,0.00000278,-0.00000550,0.00000131,0.00000825,-0.00000057,0.00
 000437,0.00000779,-0.00000196,-0.00000292,-0.00000587,-0.00000537,0.00
 000221,0.00002380,-0.00001183,-0.00001678,0.00004399,-0.00117378,0.002
 28299,0.00291586,-0.00624999,0.00036835,0.01186754,0.00911850,-0.02712
 247,-0.03036856,-0.05819993,0.04860713,-0.00801547,-0.00475622,0.01424
 396,-0.00952078,-0.00416793,0.01696979,0.03514179,0.06513835,0.0000133
 2,-0.00000855,0.00000046,-0.00000130,0.00000107,-0.00000039,0.00001172
 ,0.00000779,0.00000733,-0.00009674,0.00001740,-0.00003873,0.00003069,-
 0.00001300,-0.00000124,-0.00000860,-0.00000375,0.00000555,0.00002629,-
 0.00029482,-0.00015950,0.00011809,0.00000629,0.00012617,-0.00003596,0.
 00003781,-0.00001013,-0.00002457,-0.00004230,-0.00007182,0.00000985,0.
 00000289,0.00000886,0.00000153,0.00000092,-0.00000822,-0.00000096,-0.0
 0000019,0.00000192,-0.00006291,0.00049465,0.00022087,0.00002951,-0.000
 00440,0.00003371,-0.00000353,0.00000065,-0.00000282,-0.00000279,-0.000
 00150,-0.00000141,0.,-0.00000066,0.00000254,0.00000009,-0.00000024,0.0
 0000122,-0.00000073,-0.00000079,-0.00000051,-0.00000141,0.00000081,-0.
 00000089,0.00000002,0.00000024,0.00000038,0.00000076,-0.00000069,-0.00
 000039,0.00000177,-0.00000112,0.00000007,-0.00001917,0.00001121,-0.000
 00200,0.00000250,-0.00000546,0.00000137,0.00000693,-0.00000093,0.00000
 366,0.00000649,-0.00000172,-0.00000232,-0.00000542,-0.00000610,0.00000
 184,0.00002291,-0.00001697,-0.00001288,-0.00076796,-0.00143172,0.00231
 553,0.00112595,-0.00386198,-0.00056156,0.00716846,0.00768050,-0.014097
 92,0.10833351,0.05067989,-0.24265100,-0.00479049,-0.00211119,0.0082037
 7,0.00779115,0.00337006,-0.01479599,-0.11814018,-0.05401445,0.25966576
 ,0.00000168,-0.00000132,0.00000044,-0.00000007,-0.00000033,-0.00000181
 ,0.00000149,0.00000083,0.00000036,-0.00000889,0.00000343,-0.00000349,0
 .00000229,-0.00000220,-0.00000005,-0.00000057,-0.00000005,0.00000044,0
 .00000524,-0.00002717,-0.00001413,-0.00001233,0.00000872,0.00000981,0.
 00001235,-0.00002951,-0.00004003,0.00000602,-0.00001394,-0.00001397,0.
 00000855,-0.00000361,0.00000597,-0.00000116,-0.00000390,-0.00000027,0.
 00000032,0.00000101,0.00000081,0.00000066,0.00004615,0.00001675,-0.000
 01047,0.00005596,0.00006363,-0.00000166,-0.00000104,-0.00000363,-0.000
 00196,-0.00000055,-0.00000201,0.00000093,0.00000160,-0.00000086,-0.000
 00010,0.00000164,0.00000010,0.00000013,0.00000016,0.00000004,-0.000000
 74,0.,-0.00000014,-0.00000004,-0.00000021,-0.00000114,0.00000034,0.000
 00020,0.00000004,0.00000009,-0.00000013,0.00000017,-0.00000233,0.00000
 172,0.00000117,0.00000039,-0.00000073,0.00000004,0.00000071,-0.0000003
 8,0.00000009,0.00000103,-0.00000018,-0.00000074,-0.00000041,-0.0000002
 3,0.00000006,0.00000636,-0.00001188,-0.00000550,0.00009247,-0.00036410
 ,-0.00049963,0.00101904,0.00002429,-0.00045669,-0.00023887,0.00169078,
 0.00109288,-0.01382207,-0.00739580,0.02474905,-0.10709875,-0.03174934,
 0.10717693,0.00106146,0.00085174,0.00014511,-0.00430171,-0.00329642,-0
 .00182070,0.11646803,-0.00000234,0.00000024,-0.00000186,0.00000073,0.0
 0000295,-0.00000048,-0.00000328,-0.00000931,0.00000449,0.00000896,0.00
 000394,0.00000467,-0.00000280,0.00000028,-0.00000057,0.00000099,0.0000
 0116,-0.00000050,-0.00000441,0.00003190,0.00001498,-0.00002009,0.00000
 064,-0.00001317,0.00001123,-0.00001274,-0.00001572,0.00000560,0.000001
 20,0.00000433,0.00000052,-0.00000271,0.00000082,-0.00000089,-0.0000016
 2,0.00000093,0.00000057,0.00000029,-0.00000010,0.00001775,-0.00005164,
 -0.00001780,-0.00000730,0.00001777,0.00002092,0.00000006,-0.00000049,-
 0.00000102,-0.00000026,0.00000011,-0.00000032,0.00000069,0.00000099,-0
 .00000078,-0.00000044,0.00000092,-0.00000011,0.00000012,0.00000007,0.0
 0000012,0.,0.00000001,0.00000013,-0.00000005,-0.00000004,-0.00000063,0
 .00000014,-0.00000019,0.00000004,-0.00000015,0.,-0.00000018,0.00000276
 ,-0.00000214,0.00000132,-0.00000031,0.00000138,-0.00000033,-0.00000088
 ,0.00000037,-0.00000071,-0.00000065,0.00000039,0.00000014,0.00000038,0
 .00000115,0.00000034,0.00000368,0.00000455,-0.00000313,0.00010125,-0.0
 0006577,-0.00030262,0.00019494,0.00009365,0.00004886,-0.00014401,0.000
 43378,0.00095603,-0.00739156,-0.00481383,0.01420916,-0.03141261,-0.065
 40642,0.05815779,0.00059782,0.00057347,-0.00035292,-0.00291842,-0.0010
 3739,-0.00114726,0.03747059,0.06646372,-0.00000066,0.00000024,0.000000
 27,0.00000008,-0.00000022,0.00000072,-0.00000142,0.00000357,0.00000027
 ,0.00000441,-0.00000368,0.00000064,0.00000076,0.00000248,-0.00000061,0
 .00000024,-0.00000059,0.00000017,-0.00000365,0.00000454,0.00000462,0.0
 0000748,-0.00000334,-0.00000233,-0.00000770,0.00001106,0.00001618,-0.0
 0000240,0.00000596,0.00000373,-0.00000284,0.00000040,-0.00000141,-0.00
 000052,0.00000090,0.00000058,-0.00000003,0.00000051,-0.00000125,-0.000
 00340,-0.00001177,-0.00000765,0.00000931,-0.00001712,-0.00002731,0.000
 00020,0.00000019,0.00000154,0.00000044,0.00000031,0.00000037,-0.000000
 24,-0.00000054,0.00000012,-0.00000039,-0.00000117,-0.00000051,0.000000
 20,0.00000008,0.00000006,0.00000038,-0.00000033,-0.00000001,-0.0000001
 3,-0.00000012,0.00000075,-0.00000029,0.00000018,0.00000006,-0.00000005
 ,-0.00000006,-0.00000026,0.00000094,0.00000078,-0.00000087,-0.00000013
 ,-0.00000064,0.00000023,-0.00000038,-0.00000023,0.,-0.00000040,-0.0000
 0015,0.00000030,-0.00000114,-0.00000167,0.00000097,-0.00000366,0.00001
 085,0.00000459,-0.00017286,0.00047565,0.00010006,-0.00103946,-0.000643
 83,0.00017367,0.00130156,-0.00079795,-0.00009412,-0.00423722,-0.002020
 36,0.00772440,0.10850747,0.05993982,-0.24482671,0.00061808,0.00030134,
 0.00069831,-0.00131637,-0.00131914,0.00090339,-0.11780490,-0.06338663,
 0.26263985,0.00000433,-0.00000273,0.00000060,0.00000021,0.00000149,0.0
 0000062,0.00000476,-0.00000213,0.00000335,-0.00003071,0.00001583,-0.00
 000729,0.00000760,-0.00000529,0.00000028,-0.00000301,-0.00000083,0.000
 00055,0.00002383,-0.00006324,-0.00001316,-0.00007892,0.00005199,0.0000
 0335,0.00006704,-0.00012894,-0.00014824,0.00002940,-0.00005325,-0.0000
 3865,0.00003536,-0.00000737,0.00001631,-0.00000249,-0.00000399,-0.0000
 0214,0.00000045,0.00000142,0.00000134,-0.00000456,0.00010723,0.0000381
 2,-0.00006125,0.00019396,0.00025662,-0.00000606,-0.00000217,-0.0000102
 9,-0.00000624,-0.00000362,-0.00000685,0.00000090,0.00000302,-0.0000012
 1,-0.00000133,-0.00000001,0.00000257,-0.00000055,-0.00000065,-0.000000
 58,-0.00000163,0.00000010,-0.00000116,-0.00000026,-0.00000027,-0.00000
 133,0.00000047,-0.00000040,-0.00000031,0.00000054,-0.00000031,-0.00000
 001,-0.00000604,0.00000282,-0.00000143,0.00000072,-0.00000119,0.000000
 40,0.00000231,-0.00000004,0.00000136,0.00000197,-0.00000045,-0.0000006
 5,-0.00000070,-0.00000127,0.00000114,0.00001154,-0.00000783,-0.0000085
 6,-0.00104357,-0.00322534,-0.00174372,0.00139307,0.00017594,-0.0000219
 6,-0.00563809,0.00116272,0.00134752,0.00654943,-0.02633631,-0.01616204
 ,-0.05971257,0.04925761,0.02987169,0.00119604,0.00086132,0.00016816,0.
 00118330,0.00070411,0.00051248,-0.00367351,0.01283356,0.00609058,0.063
 97912,0.00000766,-0.00000477,0.00000157,-0.00000069,0.00000069,0.00000
 003,0.00000721,0.00000276,0.00000310,-0.00004847,0.00001468,-0.0000145
 5,0.00001434,-0.00000609,0.00000041,-0.00000431,-0.00000218,0.00000081
 ,0.00002893,-0.00012334,-0.00004429,-0.00003983,0.00005357,0.00003951,
 0.00004727,-0.00009683,-0.00011863,0.00002005,-0.00005849,-0.00005538,
 0.00003285,-0.00000503,0.00001855,-0.00000230,-0.00000484,-0.00000349,
 0.00000086,0.00000115,0.00000191,-0.00004277,0.00022482,0.00008213,-0.
 00004236,0.00018197,0.00023249,-0.00000562,-0.00000163,-0.00000977,-0.
 00000632,-0.00000391,-0.00000655,0.00000098,0.00000268,-0.00000072,-0.
 00000089,-0.00000015,0.00000228,-0.00000094,-0.00000103,-0.00000070,-0
 .00000221,0.00000081,-0.00000105,-0.00000014,-0.00000002,-0.00000170,0
 .00000045,-0.00000031,-0.00000011,0.00000083,-0.00000051,0.00000015,-0
 .00001272,0.00000736,-0.00000094,0.00000171,-0.00000352,0.00000065,0.0
 0000444,-0.00000079,0.00000209,0.00000444,-0.00000120,-0.00000194,-0.0
 0000182,-0.00000400,0.00000187,0.00001452,-0.00001499,-0.00000827,-0.0
 0116378,-0.00235514,-0.00127654,0.00003557,-0.00082642,-0.00058791,-0.
 00241080,0.00248195,0.00116890,0.00482510,-0.01314717,-0.00750020,0.04
 771263,-0.23845454,-0.11540542,0.00001336,0.00078304,0.00001934,0.0003
 7460,0.00028700,0.00047661,-0.00155170,0.00868124,0.00434396,-0.050926
 57,0.25673018,0.00000407,-0.00000222,0.00000111,-0.00000044,-0.0000001
 7,0.00000044,0.00000435,0.00000326,0.00000182,-0.00002502,0.00000666,-
 0.00000886,0.00000748,-0.00000388,-0.00000018,-0.00000219,-0.00000101,
 0.00000126,0.00001612,-0.00006693,-0.00002055,-0.00001844,0.00002707,0
 .00002200,0.00001782,-0.00004651,-0.00005090,0.00000920,-0.00002844,-0
 .00002792,0.00001642,-0.00000192,0.00000842,-0.00000039,-0.00000186,-0
 .00000222,0.00000042,0.00000030,0.00000132,-0.00002659,0.00012255,0.00
 004260,-0.00001461,0.00008294,0.00010388,-0.00000246,-0.00000077,-0.00
 000449,-0.00000339,-0.00000193,-0.00000334,0.00000006,0.00000086,-0.00
 000033,0.00000003,-0.00000030,0.00000119,-0.00000056,-0.00000049,-0.00
 000037,-0.00000131,0.00000041,-0.00000051,-0.00000003,-0.00000002,-0.0
 0000079,0.00000025,-0.00000015,-0.00000016,0.00000040,-0.00000028,0.00
 000004,-0.00000638,0.00000338,-0.00000109,0.00000085,-0.00000168,0.000
 00033,0.00000227,-0.00000031,0.00000115,0.00000218,-0.00000059,-0.0000
 0090,-0.00000116,-0.00000188,0.00000062,0.00000613,-0.00000585,-0.0000
 0326,-0.00056242,-0.00105648,-0.00048165,-0.00014063,-0.00060620,-0.00
 012234,-0.00067779,0.00081043,0.00132809,0.00201780,-0.00414214,-0.003
 75710,0.02894898,-0.11560669,-0.11927327,0.00022499,0.00013331,-0.0000
 8393,-0.00023284,0.00023876,0.00043470,0.00500036,-0.02347751,-0.01294
 708,-0.03158669,0.12780470,0.12420694,0.00000163,-0.00000157,-0.000000
 79,-0.00000011,-0.00000019,0.00000046,0.00000296,0.00000384,0.00000182
 ,-0.00001062,0.00000346,-0.00000480,0.00000355,-0.00000280,-0.00000185
 ,-0.00000101,-0.00000028,0.00000191,0.00000608,-0.00002805,-0.00000612
 ,-0.00001890,0.00001132,0.00000370,0.00000603,-0.00003439,-0.00003074,
 0.00000659,-0.00001284,-0.00001137,0.00000781,-0.00000144,0.00000235,0
 .00000056,0.00000117,-0.00000154,0.00000016,-0.00000052,0.00000099,-0.
 00000056,0.00005437,0.00001400,-0.00000002,0.00004414,0.00004923,-0.00
 000093,-0.00000041,-0.00000250,-0.00000162,-0.00000171,-0.00000183,0.0
 0000046,0.00000160,-0.00000022,-0.00000091,-0.00000078,0.00000167,-0.0
 0000058,-0.00000069,-0.00000041,-0.00000005,0.00000015,-0.00000014,-0.
 00000001,0.00000012,-0.00000062,0.00000041,0.00000006,-0.00000029,0.00
 000024,-0.00000038,-0.00000027,-0.00000123,0.00000049,-0.00000180,0.00
 000021,-0.00000037,0.00000048,0.00000085,0.00000012,0.00000089,0.00000
 012,-0.00000017,0.00000068,-0.00000123,-0.00000100,0.00000058,0.000005
 70,-0.00001010,-0.00000838,0.00014770,-0.00065565,-0.00013686,0.001218
 58,-0.00022731,0.00014171,-0.00043708,0.00187179,0.00110148,-0.0178424
 5,0.01613616,-0.01602075,-0.15110346,0.09415560,-0.09235548,-0.0042113
 1,-0.00371058,-0.00103903,0.00103871,0.00050990,0.00056940,0.01048605,
 -0.00934188,0.00805809,-0.00422091,0.00311645,-0.00297683,0.16491861,-
 0.00000079,0.00000082,0.00000042,0.00000039,-0.00000069,-0.00000124,-0
 .00000161,-0.00000092,-0.00000116,0.00000744,-0.00000262,-0.00000213,-
 0.00000138,0.00000178,0.00000040,0.00000054,0.,-0.00000028,-0.00000245
 ,0.00001643,0.00001042,0.00000030,-0.00000408,-0.00000602,-0.00000516,
 0.00001258,0.00001067,-0.00000148,0.00000579,0.00000661,-0.00000288,0.
 00000061,-0.00000160,0.00000043,0.00000058,0.00000014,-0.00000020,0.00
 000001,-0.00000025,0.00000650,-0.00003368,-0.00000642,0.00000728,-0.00
 001049,-0.00001450,0.00000028,-0.00000002,0.00000063,0.00000071,0.0000
 0032,0.00000053,0.00000005,-0.00000023,0.00000007,0.00000022,0.0000000
 9,-0.00000007,0.00000007,0.00000011,0.00000006,0.00000015,-0.00000010,
 0.00000013,0.00000002,-0.00000003,0.00000005,-0.00000027,0.00000005,0.
 00000018,-0.00000003,0.00000008,-0.00000001,0.00000258,-0.00000051,0.0
 0000090,-0.00000037,0.00000018,-0.00000007,-0.00000096,-0.00000012,-0.
 00000044,-0.00000085,0.00000017,0.00000013,0.00000010,-0.00000074,0.00
 000034,-0.00000162,0.00000575,0.00000719,-0.00005246,0.00005165,0.0003
 8005,-0.00074649,-0.00025356,-0.00041087,0.00086678,0.00040563,-0.0006
 7997,-0.01147804,0.01060622,-0.01057622,0.09582783,-0.13396944,0.08618
 258,-0.00314079,-0.00121061,-0.00123678,0.00089679,0.00075851,0.000180
 99,0.00429589,-0.00491188,0.00310670,0.01540109,-0.01433700,0.01582155
 ,-0.10187764,0.14286935,-0.00000122,0.00000023,-0.00000101,0.00000081,
 0.00000097,0.00000018,-0.00000017,-0.00000490,0.00000218,0.00000617,0.
 00000099,-0.00000050,-0.00000395,-0.00000148,-0.00000053,0.00000086,0.
 00000095,0.00000043,0.00000147,0.00002635,0.00001758,-0.00002558,0.000
 00139,-0.00001880,0.00001055,-0.00001157,-0.00000838,0.00000500,0.0000
 0133,0.00000769,0.00000054,0.,-0.00000145,0.00000045,0.00000164,0.0000
 0006,0.00000047,-0.00000054,0.00000014,0.00001577,-0.00004582,-0.00002
 100,-0.00000383,0.00000937,0.00001172,0.00000028,0.00000007,0.00000016
 ,0.00000025,-0.00000051,0.00000007,-0.00000004,0.00000025,0.,-0.000000
 58,-0.00000123,0.00000062,-0.00000038,-0.00000047,-0.00000020,0.000000
 16,0.00000016,0.00000009,-0.00000002,0.00000012,-0.00000012,0.00000037
 ,-0.00000030,-0.00000074,-0.00000003,-0.00000023,-0.00000020,0.0000040
 5,-0.00000475,-0.00000184,-0.00000050,0.00000240,0.00000013,-0.0000006
 5,0.00000110,0.00000045,-0.00000193,0.00000081,0.00000172,0.00000146,0
 .00000128,-0.00000022,-0.00000170,0.00000572,-0.00000193,0.00016132,-0
 .00028987,-0.00011158,0.00051114,0.00028079,0.00023985,-0.00077001,0.0
 0075905,0.00020869,-0.00304060,0.00278668,-0.00359939,-0.09252943,0.08
 453369,-0.13204907,-0.00099515,-0.00096020,0.00096175,0.00015680,-0.00
 045709,0.00048058,-0.01759457,0.01529929,-0.01436572,0.01143921,-0.009
 16290,0.01063536,0.10265320,-0.09277273,0.13761320\\-0.00000254,-0.000
 00497,0.00000337,0.00000458,0.00000271,0.00000113,0.00000006,0.0000123
 5,-0.00000323,0.00000787,-0.00000213,0.00000011,-0.00000163,0.00000105
 ,-0.00000025,0.00000198,0.00000354,-0.00000340,0.00000015,-0.00001457,
 0.00000985,-0.00001740,0.00000339,0.00000044,0.00001375,0.00000771,-0.
 00001215,0.00000388,-0.00000348,-0.00000153,0.00000273,-0.00000239,0.0
 0000436,0.00000015,-0.00000132,-0.00000349,0.00000163,-0.00000316,-0.0
 0000020,-0.00000365,0.00000708,-0.00000366,-0.00000219,-0.00000931,0.0
 0000319,0.00000145,-0.00000220,-0.00000074,-0.00000030,-0.00000243,-0.
 00000099,-0.00000047,-0.00000274,-0.00000107,-0.00000028,-0.00000152,-
 0.00000056,0.00000114,-0.00000275,-0.00000217,0.00000031,-0.00000262,-
 0.00000187,0.00000107,-0.00000219,-0.00000209,-0.00000042,0.00000233,0
 .00000297,0.00000302,0.00000103,0.00000038,-0.00001361,-0.00001265,0.0
 0001134,0.00000645,0.00001425,-0.00000216,0.00000644,0.00000689,0.0000
 0349,0.00000958,0.00000794,-0.00000507,0.00000263,0.00000452,-0.000001
 80,0.00000031,-0.00000065,0.00000456,-0.00001145,-0.00000569,-0.000006
 98,-0.00000685,0.00000846,-0.00000225,0.00001782,-0.00000734,0.0000003
 4,-0.00000625,-0.00000161,0.00000768,-0.00000314,0.00000127,0.00000211
 ,-0.00000144,0.00000025,-0.00000174,-0.00000426,0.00000051,-0.00000123
 ,-0.00000398,-0.00000004,0.00000103,-0.00000350,0.00000069,0.00000134,
 -0.00000365,-0.00000019,0.00000092\\\@


 There are more things in heaven and earth, Horatio,
 than are dreamt of in your philosophy.
                   -- Hamlet, Act I, Scene 5
 Job cpu time:       0 days  7 hours 32 minutes 49.6 seconds.
 File lengths (MBytes):  RWF=   1274 Int=      0 D2E=      0 Chk=     31 Scr=      1
 Normal termination of Gaussian 09 at Tue Feb 19 13:56:08 2019.
WARNING: pbs_rusage is deprecated and values produced may not be accurate


=============================================================================
                                     Resource usage:
                                       CPU time:              35:43:03
   JobId:    5874036.r-man2            Elapsed time:          04:30:57
   Project:             q95            Requested time:        48:00:00
   Service Units:     36.13 
                                       Max physical memory:     1579MB
                                       Max virtual memory:      3234MB
                                       Requested memory:           0MB

                                       Number of cpus:               8

                                       Max jobfs disk use:       1.2GB
                                       Requested jobfs:         24.0GB
=============================================================================

