 Entering Gaussian System, Link 0=/apps/gaussian/g09e01/g09/g09
 AtFile(1): /home/507/hio507/Basis/6-31pGd.gbs
 Initial command:
 /apps/gaussian/g09e01/g09/l1.exe "/jobfs/local/344093.r-man2/Gau-46001.inp" -scrdir="/jobfs/local/344093.r-man2/"
 Entering Link 1 = /apps/gaussian/g09e01/g09/l1.exe PID=     46007.
  
 Copyright (c) 1988,1990,1992,1993,1995,1998,2003,2009,2015,
            Gaussian, Inc.  All Rights Reserved.
  
 This is part of the Gaussian(R) 09 program.  It is based on
 the Gaussian(R) 03 system (copyright 2003, Gaussian, Inc.),
 the Gaussian(R) 98 system (copyright 1998, Gaussian, Inc.),
 the Gaussian(R) 94 system (copyright 1995, Gaussian, Inc.),
 the Gaussian 92(TM) system (copyright 1992, Gaussian, Inc.),
 the Gaussian 90(TM) system (copyright 1990, Gaussian, Inc.),
 the Gaussian 88(TM) system (copyright 1988, Gaussian, Inc.),
 the Gaussian 86(TM) system (copyright 1986, Carnegie Mellon
 University), and the Gaussian 82(TM) system (copyright 1983,
 Carnegie Mellon University). Gaussian is a federally registered
 trademark of Gaussian, Inc.
  
 This software contains proprietary and confidential information,
 including trade secrets, belonging to Gaussian, Inc.
  
 This software is provided under written license and may be
 used, copied, transmitted, or stored only in accord with that
 written license.
  
 The following legend is applicable only to US Government
 contracts under FAR:
  
                    RESTRICTED RIGHTS LEGEND
  
 Use, reproduction and disclosure by the US Government is
 subject to restrictions as set forth in subparagraphs (a)
 and (c) of the Commercial Computer Software - Restricted
 Rights clause in FAR 52.227-19.
  
 Gaussian, Inc.
 340 Quinnipiac St., Bldg. 40, Wallingford CT 06492
  
  
 ---------------------------------------------------------------
 Warning -- This program may not be used in any manner that
 competes with the business of Gaussian, Inc. or will provide
 assistance to any competitor of Gaussian, Inc.  The licensee
 of this program is prohibited from giving any competitor of
 Gaussian, Inc. access to this program.  By using this program,
 the user acknowledges that Gaussian, Inc. is engaged in the
 business of creating and licensing software in the field of
 computational chemistry and represents and warrants to the
 licensee that it is not a competitor of Gaussian, Inc. and that
 it will not use this program in any manner prohibited above.
 ---------------------------------------------------------------
  

 Cite this work as:
 Gaussian 09, Revision E.01,
 M. J. Frisch, G. W. Trucks, H. B. Schlegel, G. E. Scuseria, 
 M. A. Robb, J. R. Cheeseman, G. Scalmani, V. Barone, B. Mennucci, 
 G. A. Petersson, H. Nakatsuji, M. Caricato, X. Li, H. P. Hratchian, 
 A. F. Izmaylov, J. Bloino, G. Zheng, J. L. Sonnenberg, M. Hada, 
 M. Ehara, K. Toyota, R. Fukuda, J. Hasegawa, M. Ishida, T. Nakajima, 
 Y. Honda, O. Kitao, H. Nakai, T. Vreven, J. A. Montgomery, Jr., 
 J. E. Peralta, F. Ogliaro, M. Bearpark, J. J. Heyd, E. Brothers, 
 K. N. Kudin, V. N. Staroverov, T. Keith, R. Kobayashi, J. Normand, 
 K. Raghavachari, A. Rendell, J. C. Burant, S. S. Iyengar, J. Tomasi, 
 M. Cossi, N. Rega, J. M. Millam, M. Klene, J. E. Knox, J. B. Cross, 
 V. Bakken, C. Adamo, J. Jaramillo, R. Gomperts, R. E. Stratmann, 
 O. Yazyev, A. J. Austin, R. Cammi, C. Pomelli, J. W. Ochterski, 
 R. L. Martin, K. Morokuma, V. G. Zakrzewski, G. A. Voth, 
 P. Salvador, J. J. Dannenberg, S. Dapprich, A. D. Daniels, 
 O. Farkas, J. B. Foresman, J. V. Ortiz, J. Cioslowski, 
 and D. J. Fox, Gaussian, Inc., Wallingford CT, 2013.
 
 ******************************************
 Gaussian 09:  ES64L-G09RevE.01 30-Nov-2015
                15-Jul-2019 
 ******************************************
 %chk=4SulfCFalt1.M062X_6-31pGd_opt_water.chk
 %mem=196608000
 %nproc=4
 Will use up to    4 processors via shared memory.
 ----------------------------------------------------------------------
 # M062X/Gen 6D SCF=Tight INT(grid=ultrafine) OPT=CalcFC IOP(2/17=4) SC
 RF=(SMD,Solvent=h2o) maxdisk=2147483648
 ----------------------------------------------------------------------
 1/10=4,14=-1,18=20,19=15,26=4,38=1/1,3;
 2/9=110,12=2,17=4,18=5,40=1/2;
 3/5=7,8=2,11=2,16=1,25=1,30=1,70=32201,71=2,72=1,74=-55,75=-5,140=1/1,2,3;
 4//1;
 5/5=2,32=2,38=5,53=1/2;
 8/6=4,10=90,11=11/1;
 11/6=1,8=1,9=11,15=111,16=1/1,2,10;
 10/6=1,13=1/2;
 6/7=2,8=2,9=2,10=2,28=1/1;
 7/10=1,18=20,25=1/1,2,3,16;
 1/10=4,14=-1,18=20,19=15,26=4/3(2);
 2/9=110,17=4/2;
 99//99;
 2/9=110,17=4/2;
 3/5=7,6=1,8=2,11=2,16=1,25=1,30=1,70=32205,71=1,72=1,74=-55,75=-5,82=7/1,2,3;
 4/5=5,16=3,69=1/1;
 5/5=2,32=2,38=5,53=1/2;
 7//1,2,3,16;
 1/14=-1,18=20,19=15,26=4/3(-5);
 2/9=110,17=4/2;
 6/7=2,8=2,9=2,10=2,19=2,28=1/1;
 99/9=1/99;
 -----------------------------------
 4SulfCFalt1.M062X_6-31pGd_opt_water
 -----------------------------------
 Symbolic Z-matrix:
 Charge =  0 Multiplicity = 1
 C                    -1.60524   1.71722  -0.58102 
 C                    -0.36913   1.20428   0.15186 
 C                     0.77591   2.22228   0.09215 
 N                     2.0595    1.55388  -0.03436 
 C                     3.22974   2.24836  -0.11536 
 O                     3.20435   3.4683   -0.0718 
 N                     4.40792   1.56634  -0.25894 
 C                     5.73592   2.10876  -0.37511 
 C                     6.0541    3.48504  -0.26367 
 C                     6.79096   1.20683  -0.61906 
 C                     8.10762   1.65133  -0.75667 
 C                     8.40405   3.01045  -0.64479 
 C                     7.37644   3.92326  -0.39753 
 H                    -2.41494   0.95977  -0.51988 
 H                    -1.37043   1.89996  -1.65143 
 H                    -1.96485   2.66137  -0.1195 
 H                    -0.04297   0.25145  -0.31937 
 H                    -0.63341   1.00604   1.21349 
 H                     0.76965   2.83702   1.01925 
 H                     0.62497   2.88898  -0.78564 
 H                     2.08497   0.52253  -0.07229 
 H                     4.33561   0.53787  -0.30811 
 H                     5.32228   4.24832  -0.0725 
 H                     6.5919    0.14635  -0.71117 
 H                     8.89623   0.93568  -0.95093 
 S                     10.09459   3.58961  -0.83186 
 C                     10.62354   3.1368    0.85376 
 F                     10.7066   1.76217   0.97236 
 F                     11.87245   3.68041   1.08378 
 F                     9.74531   3.64571   1.79297 
 H                     7.60046   4.97925  -0.31062 
 

 GradGradGradGradGradGradGradGradGradGradGradGradGradGradGradGradGradGrad
 Berny optimization.
 Initialization pass.
                           ----------------------------
                           !    Initial Parameters    !
                           ! (Angstroms and Degrees)  !
 --------------------------                            --------------------------
 ! Name  Definition              Value          Derivative Info.                !
 --------------------------------------------------------------------------------
 ! R1    R(1,2)                  1.5258         calculate D2E/DX2 analytically  !
 ! R2    R(1,14)                 1.1104         calculate D2E/DX2 analytically  !
 ! R3    R(1,15)                 1.111          calculate D2E/DX2 analytically  !
 ! R4    R(1,16)                 1.1107         calculate D2E/DX2 analytically  !
 ! R5    R(2,3)                  1.5333         calculate D2E/DX2 analytically  !
 ! R6    R(2,17)                 1.1119         calculate D2E/DX2 analytically  !
 ! R7    R(2,18)                 1.1118         calculate D2E/DX2 analytically  !
 ! R8    R(3,4)                  1.4527         calculate D2E/DX2 analytically  !
 ! R9    R(3,19)                 1.1124         calculate D2E/DX2 analytically  !
 ! R10   R(3,20)                 1.1126         calculate D2E/DX2 analytically  !
 ! R11   R(4,5)                  1.3632         calculate D2E/DX2 analytically  !
 ! R12   R(4,21)                 1.0324         calculate D2E/DX2 analytically  !
 ! R13   R(5,6)                  1.221          calculate D2E/DX2 analytically  !
 ! R14   R(5,7)                  1.3689         calculate D2E/DX2 analytically  !
 ! R15   R(7,8)                  1.4392         calculate D2E/DX2 analytically  !
 ! R16   R(7,22)                 1.0322         calculate D2E/DX2 analytically  !
 ! R17   R(8,9)                  1.417          calculate D2E/DX2 analytically  !
 ! R18   R(8,10)                 1.4093         calculate D2E/DX2 analytically  !
 ! R19   R(9,13)                 1.3995         calculate D2E/DX2 analytically  !
 ! R20   R(9,23)                 1.0746         calculate D2E/DX2 analytically  !
 ! R21   R(10,11)                1.3965         calculate D2E/DX2 analytically  !
 ! R22   R(10,24)                1.0829         calculate D2E/DX2 analytically  !
 ! R23   R(11,12)                1.3956         calculate D2E/DX2 analytically  !
 ! R24   R(11,25)                1.0825         calculate D2E/DX2 analytically  !
 ! R25   R(12,13)                1.3965         calculate D2E/DX2 analytically  !
 ! R26   R(12,26)                1.7968         calculate D2E/DX2 analytically  !
 ! R27   R(13,31)                1.083          calculate D2E/DX2 analytically  !
 ! R28   R(26,27)                1.8238         calculate D2E/DX2 analytically  !
 ! R29   R(27,28)                1.3822         calculate D2E/DX2 analytically  !
 ! R30   R(27,29)                1.3814         calculate D2E/DX2 analytically  !
 ! R31   R(27,30)                1.3829         calculate D2E/DX2 analytically  !
 ! A1    A(2,1,14)             109.5702         calculate D2E/DX2 analytically  !
 ! A2    A(2,1,15)             110.2943         calculate D2E/DX2 analytically  !
 ! A3    A(2,1,16)             110.3931         calculate D2E/DX2 analytically  !
 ! A4    A(14,1,15)            108.6239         calculate D2E/DX2 analytically  !
 ! A5    A(14,1,16)            108.715          calculate D2E/DX2 analytically  !
 ! A6    A(15,1,16)            109.2046         calculate D2E/DX2 analytically  !
 ! A7    A(1,2,3)              111.2898         calculate D2E/DX2 analytically  !
 ! A8    A(1,2,17)             108.7932         calculate D2E/DX2 analytically  !
 ! A9    A(1,2,18)             109.026          calculate D2E/DX2 analytically  !
 ! A10   A(3,2,17)             109.4743         calculate D2E/DX2 analytically  !
 ! A11   A(3,2,18)             109.455          calculate D2E/DX2 analytically  !
 ! A12   A(17,2,18)            108.7596         calculate D2E/DX2 analytically  !
 ! A13   A(2,3,4)              110.9626         calculate D2E/DX2 analytically  !
 ! A14   A(2,3,19)             109.2835         calculate D2E/DX2 analytically  !
 ! A15   A(2,3,20)             109.103          calculate D2E/DX2 analytically  !
 ! A16   A(4,3,19)             109.3789         calculate D2E/DX2 analytically  !
 ! A17   A(4,3,20)             109.0798         calculate D2E/DX2 analytically  !
 ! A18   A(19,3,20)            109.0037         calculate D2E/DX2 analytically  !
 ! A19   A(3,4,5)              121.9572         calculate D2E/DX2 analytically  !
 ! A20   A(3,4,21)             118.9898         calculate D2E/DX2 analytically  !
 ! A21   A(5,4,21)             119.0508         calculate D2E/DX2 analytically  !
 ! A22   A(4,5,6)              119.2776         calculate D2E/DX2 analytically  !
 ! A23   A(4,5,7)              119.4235         calculate D2E/DX2 analytically  !
 ! A24   A(6,5,7)              121.2948         calculate D2E/DX2 analytically  !
 ! A25   A(5,7,8)              127.9424         calculate D2E/DX2 analytically  !
 ! A26   A(5,7,22)             116.1764         calculate D2E/DX2 analytically  !
 ! A27   A(8,7,22)             115.8701         calculate D2E/DX2 analytically  !
 ! A28   A(7,8,9)              124.5356         calculate D2E/DX2 analytically  !
 ! A29   A(7,8,10)             117.6168         calculate D2E/DX2 analytically  !
 ! A30   A(9,8,10)             117.8475         calculate D2E/DX2 analytically  !
 ! A31   A(8,9,13)             120.5832         calculate D2E/DX2 analytically  !
 ! A32   A(8,9,23)             123.4342         calculate D2E/DX2 analytically  !
 ! A33   A(13,9,23)            115.9822         calculate D2E/DX2 analytically  !
 ! A34   A(8,10,11)            121.2784         calculate D2E/DX2 analytically  !
 ! A35   A(8,10,24)            120.2541         calculate D2E/DX2 analytically  !
 ! A36   A(11,10,24)           118.466          calculate D2E/DX2 analytically  !
 ! A37   A(10,11,12)           120.1564         calculate D2E/DX2 analytically  !
 ! A38   A(10,11,25)           119.6123         calculate D2E/DX2 analytically  !
 ! A39   A(12,11,25)           120.2313         calculate D2E/DX2 analytically  !
 ! A40   A(11,12,13)           119.6335         calculate D2E/DX2 analytically  !
 ! A41   A(11,12,26)           120.3595         calculate D2E/DX2 analytically  !
 ! A42   A(13,12,26)           120.0047         calculate D2E/DX2 analytically  !
 ! A43   A(9,13,12)            120.4995         calculate D2E/DX2 analytically  !
 ! A44   A(9,13,31)            119.5447         calculate D2E/DX2 analytically  !
 ! A45   A(12,13,31)           119.9556         calculate D2E/DX2 analytically  !
 ! A46   A(12,26,27)            95.5449         calculate D2E/DX2 analytically  !
 ! A47   A(26,27,28)           110.0993         calculate D2E/DX2 analytically  !
 ! A48   A(26,27,29)           108.5671         calculate D2E/DX2 analytically  !
 ! A49   A(26,27,30)           110.6194         calculate D2E/DX2 analytically  !
 ! A50   A(28,27,29)           108.8291         calculate D2E/DX2 analytically  !
 ! A51   A(28,27,30)           110.2347         calculate D2E/DX2 analytically  !
 ! A52   A(29,27,30)           108.4367         calculate D2E/DX2 analytically  !
 ! D1    D(14,1,2,3)          -179.9849         calculate D2E/DX2 analytically  !
 ! D2    D(14,1,2,17)           59.3142         calculate D2E/DX2 analytically  !
 ! D3    D(14,1,2,18)          -59.1549         calculate D2E/DX2 analytically  !
 ! D4    D(15,1,2,3)            60.4884         calculate D2E/DX2 analytically  !
 ! D5    D(15,1,2,17)          -60.2125         calculate D2E/DX2 analytically  !
 ! D6    D(15,1,2,18)         -178.6816         calculate D2E/DX2 analytically  !
 ! D7    D(16,1,2,3)           -60.2847         calculate D2E/DX2 analytically  !
 ! D8    D(16,1,2,17)          179.0144         calculate D2E/DX2 analytically  !
 ! D9    D(16,1,2,18)           60.5453         calculate D2E/DX2 analytically  !
 ! D10   D(1,2,3,4)           -143.4258         calculate D2E/DX2 analytically  !
 ! D11   D(1,2,3,19)            95.8775         calculate D2E/DX2 analytically  !
 ! D12   D(1,2,3,20)           -23.2178         calculate D2E/DX2 analytically  !
 ! D13   D(17,2,3,4)           -23.126          calculate D2E/DX2 analytically  !
 ! D14   D(17,2,3,19)         -143.8227         calculate D2E/DX2 analytically  !
 ! D15   D(17,2,3,20)           97.082          calculate D2E/DX2 analytically  !
 ! D16   D(18,2,3,4)            95.9964         calculate D2E/DX2 analytically  !
 ! D17   D(18,2,3,19)          -24.7003         calculate D2E/DX2 analytically  !
 ! D18   D(18,2,3,20)         -143.7956         calculate D2E/DX2 analytically  !
 ! D19   D(2,3,4,5)            179.5762         calculate D2E/DX2 analytically  !
 ! D20   D(2,3,4,21)             0.1202         calculate D2E/DX2 analytically  !
 ! D21   D(19,3,4,5)           -59.7836         calculate D2E/DX2 analytically  !
 ! D22   D(19,3,4,21)          120.7604         calculate D2E/DX2 analytically  !
 ! D23   D(20,3,4,5)            59.3544         calculate D2E/DX2 analytically  !
 ! D24   D(20,3,4,21)         -120.1016         calculate D2E/DX2 analytically  !
 ! D25   D(3,4,5,6)              0.4972         calculate D2E/DX2 analytically  !
 ! D26   D(3,4,5,7)           -178.7719         calculate D2E/DX2 analytically  !
 ! D27   D(21,4,5,6)           179.9528         calculate D2E/DX2 analytically  !
 ! D28   D(21,4,5,7)             0.6838         calculate D2E/DX2 analytically  !
 ! D29   D(4,5,7,8)            179.3365         calculate D2E/DX2 analytically  !
 ! D30   D(4,5,7,22)             0.6098         calculate D2E/DX2 analytically  !
 ! D31   D(6,5,7,8)              0.0826         calculate D2E/DX2 analytically  !
 ! D32   D(6,5,7,22)          -178.6441         calculate D2E/DX2 analytically  !
 ! D33   D(5,7,8,9)              4.6838         calculate D2E/DX2 analytically  !
 ! D34   D(5,7,8,10)          -175.1935         calculate D2E/DX2 analytically  !
 ! D35   D(22,7,8,9)          -176.5862         calculate D2E/DX2 analytically  !
 ! D36   D(22,7,8,10)            3.5365         calculate D2E/DX2 analytically  !
 ! D37   D(7,8,9,13)          -179.6814         calculate D2E/DX2 analytically  !
 ! D38   D(7,8,9,23)             0.5322         calculate D2E/DX2 analytically  !
 ! D39   D(10,8,9,13)            0.1956         calculate D2E/DX2 analytically  !
 ! D40   D(10,8,9,23)         -179.5907         calculate D2E/DX2 analytically  !
 ! D41   D(7,8,10,11)          179.4412         calculate D2E/DX2 analytically  !
 ! D42   D(7,8,10,24)           -0.1141         calculate D2E/DX2 analytically  !
 ! D43   D(9,8,10,11)           -0.4445         calculate D2E/DX2 analytically  !
 ! D44   D(9,8,10,24)         -179.9998         calculate D2E/DX2 analytically  !
 ! D45   D(8,9,13,12)            0.0732         calculate D2E/DX2 analytically  !
 ! D46   D(8,9,13,31)          179.9171         calculate D2E/DX2 analytically  !
 ! D47   D(23,9,13,12)         179.8749         calculate D2E/DX2 analytically  !
 ! D48   D(23,9,13,31)          -0.2812         calculate D2E/DX2 analytically  !
 ! D49   D(8,10,11,12)           0.4245         calculate D2E/DX2 analytically  !
 ! D50   D(8,10,11,25)        -179.5499         calculate D2E/DX2 analytically  !
 ! D51   D(24,10,11,12)        179.9876         calculate D2E/DX2 analytically  !
 ! D52   D(24,10,11,25)          0.0132         calculate D2E/DX2 analytically  !
 ! D53   D(10,11,12,13)         -0.143          calculate D2E/DX2 analytically  !
 ! D54   D(10,11,12,26)       -179.5877         calculate D2E/DX2 analytically  !
 ! D55   D(25,11,12,13)        179.8313         calculate D2E/DX2 analytically  !
 ! D56   D(25,11,12,26)          0.3866         calculate D2E/DX2 analytically  !
 ! D57   D(11,12,13,9)          -0.1026         calculate D2E/DX2 analytically  !
 ! D58   D(11,12,13,31)       -179.9459         calculate D2E/DX2 analytically  !
 ! D59   D(26,12,13,9)         179.3441         calculate D2E/DX2 analytically  !
 ! D60   D(26,12,13,31)         -0.4992         calculate D2E/DX2 analytically  !
 ! D61   D(11,12,26,27)        -79.6068         calculate D2E/DX2 analytically  !
 ! D62   D(13,12,26,27)        100.9505         calculate D2E/DX2 analytically  !
 ! D63   D(12,26,27,28)         70.8799         calculate D2E/DX2 analytically  !
 ! D64   D(12,26,27,29)       -170.0773         calculate D2E/DX2 analytically  !
 ! D65   D(12,26,27,30)        -51.2061         calculate D2E/DX2 analytically  !
 --------------------------------------------------------------------------------
 Trust Radius=3.00D-01 FncErr=1.00D-07 GrdErr=1.00D-06
 Number of steps in this run=    158 maximum allowed number of steps=    186.
 GradGradGradGradGradGradGradGradGradGradGradGradGradGradGradGradGradGrad

                          Input orientation:                          
 ---------------------------------------------------------------------
 Center     Atomic      Atomic             Coordinates (Angstroms)
 Number     Number       Type             X           Y           Z
 ---------------------------------------------------------------------
      1          6           0       -1.605240    1.717220   -0.581020
      2          6           0       -0.369130    1.204280    0.151860
      3          6           0        0.775910    2.222280    0.092150
      4          7           0        2.059500    1.553880   -0.034360
      5          6           0        3.229740    2.248360   -0.115360
      6          8           0        3.204350    3.468300   -0.071800
      7          7           0        4.407920    1.566340   -0.258940
      8          6           0        5.735920    2.108760   -0.375110
      9          6           0        6.054100    3.485040   -0.263670
     10          6           0        6.790960    1.206830   -0.619060
     11          6           0        8.107620    1.651330   -0.756670
     12          6           0        8.404050    3.010450   -0.644790
     13          6           0        7.376440    3.923260   -0.397530
     14          1           0       -2.414940    0.959770   -0.519880
     15          1           0       -1.370430    1.899960   -1.651430
     16          1           0       -1.964850    2.661370   -0.119500
     17          1           0       -0.042970    0.251450   -0.319370
     18          1           0       -0.633410    1.006040    1.213490
     19          1           0        0.769650    2.837020    1.019250
     20          1           0        0.624970    2.888980   -0.785640
     21          1           0        2.084970    0.522530   -0.072290
     22          1           0        4.335610    0.537870   -0.308110
     23          1           0        5.322280    4.248320   -0.072500
     24          1           0        6.591900    0.146350   -0.711170
     25          1           0        8.896230    0.935680   -0.950930
     26         16           0       10.094590    3.589610   -0.831860
     27          6           0       10.623540    3.136800    0.853760
     28          9           0       10.706600    1.762170    0.972360
     29          9           0       11.872450    3.680410    1.083780
     30          9           0        9.745310    3.645710    1.792970
     31          1           0        7.600460    4.979250   -0.310620
 ---------------------------------------------------------------------
                    Distance matrix (angstroms):
                    1          2          3          4          5
     1  C    0.000000
     2  C    1.525840   0.000000
     3  C    2.525494   1.533299   0.000000
     4  N    3.708886   2.460720   1.452710   0.000000
     5  C    4.886305   3.756777   2.462727   1.363204   0.000000
     6  O    5.143709   4.236221   2.734368   2.230939   1.220981
     7  N    6.023669   4.808331   3.707427   2.359167   1.368895
     8  C    7.354477   6.194144   4.983264   3.733640   2.523469
     9  C    7.867108   6.828793   5.438792   4.442836   3.086808
    10  C    8.411785   7.201473   6.141481   4.780066   3.744434
    11  C    9.714672   8.537012   7.402733   6.091879   4.955950
    12  C   10.092690   8.992530   7.704078   6.538160   5.256858
    13  C    9.250452   8.227304   6.833748   5.832298   4.481075
    14  H    1.110443   2.167108   3.485690   4.539748   5.804008
    15  H    1.110994   2.176793   2.784015   3.807769   4.862351
    16  H    1.110738   2.177859   2.783767   4.174826   5.210985
    17  H    2.158154   1.111901   2.173496   2.489565   3.839258
    18  H    2.161133   1.111846   2.173206   3.018116   4.270027
    19  H    3.074885   2.171411   1.112411   2.102440   2.772346
    20  H    2.527593   2.169183   1.112559   2.098759   2.764868
    21  H    3.912000   2.556880   2.151704   1.032361   2.071435
    22  H    6.062924   4.773914   3.958397   2.507567   2.045942
    23  H    7.392942   6.458225   4.980103   4.231689   2.894892
    24  H    8.347315   7.093657   6.227403   4.793940   4.009683
    25  H   10.537007   9.334623   8.287518   6.925543   5.876259
    26  S   11.851362  10.777149   9.463677   8.327237   7.031251
    27  C   12.394227  11.183295   9.919285   8.754266   7.509780
    28  F   12.409529  11.120083   9.980234   8.707997   7.571192
    29  F   13.721290  12.524216  11.235776  10.102789   8.842236
    30  F   11.755419  10.533552   9.239539   8.172305   6.931592
    31  H    9.770305   8.830552   7.371404   6.520101   5.157430
                    6          7          8          9         10
     6  O    0.000000
     7  N    2.258551   0.000000
     8  C    2.889497   1.439201   0.000000
     9  C    2.856251   2.528110   1.416970   0.000000
    10  C    4.275221   2.436763   1.409290   2.420642   0.000000
    11  C    5.273754   3.733998   2.445361   2.796871   1.396464
    12  C    5.251174   4.266543   2.829256   2.427499   2.419869
    13  C    4.209445   3.792940   2.446266   1.399478   2.787625
    14  H    6.170083   6.854738   8.232719   8.841226   9.209749
    15  H    5.087586   5.953122   7.223074   7.717642   8.255574
    16  H    5.232021   6.467668   7.724802   8.062430   8.889851
    17  H    4.577609   4.641445   6.070278   6.901700   6.906893
    18  H    4.737415   5.281761   6.656426   7.283559   7.649825
    19  H    2.741654   4.060222   5.209457   5.476425   6.449632
    20  H    2.738317   4.041967   5.186433   5.486638   6.393497
    21  H    3.151281   2.553522   3.992150   4.956519   4.786812
    22  H    3.150081   1.032181   2.105482   3.411890   2.563775
    23  H    2.257002   2.839689   2.200088   1.074571   3.421463
    24  H    4.787446   2.643984   2.167185   3.411207   1.082925
    25  H    6.291624   4.584922   3.419831   3.879338   2.148446
    26  S    6.933096   6.063009   4.625964   4.081585   4.078835
    27  C    7.484045   6.506795   5.143522   4.716959   4.536811
    28  F    7.764335   6.420889   5.161730   5.112906   4.263010
    29  F    8.747360   7.873462   6.500419   5.975532   5.902525
    30  F    6.803896   6.084558   4.810197   4.228548   4.527053
    31  H    4.654652   4.673643   3.423504   2.150836   3.870604
                   11         12         13         14         15
    11  C    0.000000
    12  C    1.395563   0.000000
    13  C    2.413560   1.396546   0.000000
    14  H   10.547919  11.012331  10.230756   0.000000
    15  H    9.523437   9.888730   9.064973   1.804263   0.000000
    16  H   10.143018  10.388064   9.430237   1.805084   1.811047
    17  H    8.281486   8.892138   8.278644   2.483579   2.500824
    18  H    8.983515   9.441745   8.675440   2.486074   3.090317
    19  H    7.642353   7.815572   6.843746   4.004323   3.548317
    20  H    7.584370   7.781303   6.841251   3.610198   2.389430
    21  H    6.165621   6.815297   6.298444   4.543204   4.041137
    22  H    3.958416   4.772757   4.551429   6.767036   6.018197
    23  H    3.869181   3.370036   2.104966   8.418984   7.266373
    24  H    2.136456   3.389891   3.870261   9.045519   8.207188
    25  H    1.082496   2.154213   3.397300  11.319406  10.335610
    26  S    2.776803   1.796760   2.772779  12.786780  11.617801
    27  C    3.336159   2.680998   3.567619  13.290158  12.315075
    28  F    3.123544   3.078167   4.199628  13.230474  12.359527
    29  F    4.656003   3.932760   4.739975  14.632263  13.639107
    30  F    3.627705   2.853981   3.238344  12.666303  11.767379
    31  H    3.395766   2.152580   1.082983  10.793899   9.578970
                   16         17         18         19         20
    16  H    0.000000
    17  H    3.088897   0.000000
    18  H    2.507930   1.807674   0.000000
    19  H    2.967338   3.022818   2.314907   0.000000
    20  H    2.683788   2.760456   3.020845   1.811425   0.000000
    21  H    4.580165   2.159320   3.045751   2.877219   2.870636
    22  H    6.651362   4.387952   5.217817   4.445677   4.418665
    23  H    7.458075   6.694910   6.901912   4.889798   4.941770
    24  H    8.938309   6.647259   7.526519   6.643241   6.567482
    25  H   11.028705   8.987566   9.772600   8.575430   8.500379
    26  S   12.116071  10.685321  11.222668   9.536640   9.495616
    27  C   12.634905  11.111972  11.462481   9.859838  10.135110
    28  F   12.750152  10.931793  11.367748   9.995023  10.295607
    29  F   13.926852  12.478134  12.789277  11.134974  11.429213
    30  F   11.906062  10.573240  10.724807   9.045170   9.508021
    31  H    9.843996   8.987446   9.268545   7.281323   7.297420
                   21         22         23         24         25
    21  H    0.000000
    22  H    2.263013   0.000000
    23  H    4.935756   3.846618   0.000000
    24  H    4.567504   2.325207   4.341197   0.000000
    25  H    6.880114   4.622848   4.951600   2.447542   0.000000
    26  S    8.610339   6.538599   4.877035   4.913191   2.914376
    27  C    8.977703   6.902351   5.495161   5.257939   3.329480
    28  F    8.772714   6.612717   6.021925   4.730317   2.767593
    29  F   10.349081   8.283530   6.675645   6.602699   4.531167
    30  F    8.480227   6.583165   4.838007   5.334813   3.948948
    31  H    7.095054   5.512269   2.404384   4.953237   4.294121
                   26         27         28         29         30
    26  S    0.000000
    27  C    1.823771   0.000000
    28  F    2.639944   1.382235   0.000000
    29  F    2.615092   1.381375   2.247502   0.000000
    30  F    2.648561   1.382893   2.268304   2.242516   0.000000
    31  H    2.902322   3.726851   4.652284   4.677738   3.286914
                   31
    31  H    0.000000
 Stoichiometry    C11H13F3N2OS
 Framework group  C1[X(C11H13F3N2OS)]
 Deg. of freedom    87
 Full point group                 C1      NOp   1
 Largest Abelian subgroup         C1      NOp   1
 Largest concise Abelian subgroup C1      NOp   1
                         Standard orientation:                         
 ---------------------------------------------------------------------
 Center     Atomic      Atomic             Coordinates (Angstroms)
 Number     Number       Type             X           Y           Z
 ---------------------------------------------------------------------
      1          6           0        7.805999   -0.197549   -0.148813
      2          6           0        6.610269    0.416151    0.573539
      3          6           0        5.344146   -0.423704    0.367185
      4          7           0        4.171275    0.425054    0.247397
      5          6           0        2.924889   -0.090307    0.049283
      6          8           0        2.783666   -1.301032   -0.021402
      7          7           0        1.859101    0.758730   -0.081511
      8          6           0        0.479071    0.418362   -0.307264
      9          6           0       -0.026912   -0.904772   -0.340465
     10          6           0       -0.429640    1.475987   -0.511653
     11          6           0       -1.784078    1.232508   -0.748984
     12          6           0       -2.266263   -0.076759   -0.779161
     13          6           0       -1.386339   -1.141594   -0.573726
     14          1           0        8.705292    0.431765    0.019468
     15          1           0        7.610125   -0.251628   -1.241066
     16          1           0        8.008657   -1.219198    0.237065
     17          1           0        6.442422    1.442563    0.180310
     18          1           0        6.837881    0.482192    1.659832
     19          1           0        5.214963   -1.112001    1.231486
     20          1           0        5.453918   -1.025616   -0.562029
     21          1           0        4.286767    1.449267    0.305879
     22          1           0        2.071581    1.767497   -0.030134
     23          1           0        0.583667   -1.776099   -0.189849
     24          1           0       -0.085021    2.502469   -0.494327
     25          1           0       -2.457060    2.065014   -0.909692
     26         16           0       -4.005851   -0.396793   -1.095008
     27          6           0       -4.564330   -0.023943    0.600641
     28          9           0       -4.468618    1.333214    0.844637
     29          9           0       -5.885995   -0.406732    0.722592
     30          9           0       -3.817349   -0.730075    1.525730
     31          1           0       -1.754751   -2.159723   -0.596910
 ---------------------------------------------------------------------
 Rotational constants (GHZ):      1.4643322      0.1045474      0.1035148
 General basis read from cards:  (6D, 7F)
 There are   372 symmetry adapted cartesian basis functions of A   symmetry.
 There are   372 symmetry adapted basis functions of A   symmetry.
   372 basis functions,   652 primitive gaussians,   372 cartesian basis functions
    72 alpha electrons       72 beta electrons
       nuclear repulsion energy      1399.2859762290 Hartrees.
 NAtoms=   31 NActive=   31 NUniq=   31 SFac= 1.00D+00 NAtFMM=   60 NAOKFM=F Big=F
 Integral buffers will be    131072 words long.
 Raffenetti 2 integral format.
 Two-electron integral symmetry is turned on.
 Force inversion solution in PCM.
 ------------------------------------------------------------------------------
 Polarizable Continuum Model (PCM)
 =================================
 Model                : PCM (using non-symmetric T matrix).
 Atomic radii         : SMD-Coulomb.
 Polarization charges : Total charges.
 Charge compensation  : None.
 Solution method      : Matrix inversion.
 Cavity type          : VdW (van der Waals Surface) (Alpha=1.000).
 Cavity algorithm     : GePol (No added spheres)
                        Default sphere list used, NSphG=   31.
                        Lebedev-Laikov grids with approx.  5.0 points / Ang**2.
                        Smoothing algorithm: York/Karplus (Gamma=1.0000).
                        Polarization charges: spherical gaussians, with
                                              point-specific exponents (IZeta= 3).
                        Self-potential: point-specific (ISelfS= 7).
                        Self-field    : sphere-specific E.n sum rule (ISelfD= 2).
 1st derivatives      : Analytical E(r).r(x)/FMM algorithm (CHGder, D1EAlg=3).
                        Cavity 1st derivative terms included.
 2nd derivatives      : Analytical E(r).r(xy)/FMM algorithm (CHGder, D2EAlg=3).
                        Cavity 2nd derivative terms included.
 Solvent              : Water, Eps=  78.355300 Eps(inf)=   1.777849
 ------------------------------------------------------------------------------
 ------------------------------------------------------------------------------
 Atomic radii for non-electrostatic terms: SMD-CDS.
 ------------------------------------------------------------------------------
 Nuclear repulsion after PCM non-electrostatic terms =     1399.2970424248 Hartrees.
 One-electron integrals computed using PRISM.
 NBasis=   372 RedAO= T EigKep=  1.77D-06  NBF=   372
 NBsUse=   372 1.00D-06 EigRej= -1.00D+00 NBFU=   372
 ExpMin= 4.05D-02 ExpMax= 2.19D+04 ExpMxC= 3.30D+03 IAcc=3 IRadAn=         5 AccDes= 0.00D+00
 Harris functional with IExCor= 1009 and IRadAn=       5 diagonalized for initial guess.
 HarFok:  IExCor= 1009 AccDes= 0.00D+00 IRadAn=         5 IDoV= 1 UseB2=F ITyADJ=14
 ICtDFT=  3500011 ScaDFX=  1.000000  1.000000  1.000000  1.000000
 FoFCou: FMM=F IPFlag=           0 FMFlag=      100000 FMFlg1=           0
         NFxFlg=           0 DoJE=T BraDBF=F KetDBF=T FulRan=T
         wScrn=  0.000000 ICntrl=     500 IOpCl=  0 I1Cent=   200000004 NGrid=           0
         NMat0=    1 NMatS0=      1 NMatT0=    0 NMatD0=    1 NMtDS0=    0 NMtDT0=    0
 Petite list used in FoFCou.
 Requested convergence on RMS density matrix=1.00D-08 within 128 cycles.
 Requested convergence on MAX density matrix=1.00D-06.
 Requested convergence on             energy=1.00D-06.
 No special actions if energy rises.
 Inv3:  Mode=1 IEnd=    17992803.
 Iteration    1 A*A^-1 deviation from unit magnitude is 4.88D-15 for    606.
 Iteration    1 A*A^-1 deviation from orthogonality  is 5.07D-15 for   1919    244.
 Iteration    1 A^-1*A deviation from unit magnitude is 4.88D-15 for    611.
 Iteration    1 A^-1*A deviation from orthogonality  is 9.74D-14 for   1116   1043.
 Error on total polarization charges =  0.04960
 SCF Done:  E(RM062X) =  -1309.11292404     A.U. after   14 cycles
            NFock= 14  Conv=0.84D-08     -V/T= 2.0071
 SMD-CDS (non-electrostatic) energy       (kcal/mol) =       6.94
 (included in total energy above)
 DoSCS=F DFT=T ScalE2(SS,OS)=  1.000000  1.000000
 Range of M.O.s used for correlation:     1   372
 NBasis=   372 NAE=    72 NBE=    72 NFC=     0 NFV=     0
 NROrb=    372 NOA=    72 NOB=    72 NVA=   300 NVB=   300

 **** Warning!!: The largest alpha MO coefficient is  0.14255439D+03

 Symmetrizing basis deriv contribution to polar:
 IMax=3 JMax=2 DiffMx= 0.00D+00
 G2DrvN: will do    32 centers at a time, making    1 passes.
 Calling FoFCou, ICntrl=  3107 FMM=F I1Cent=   0 AccDes= 0.00D+00.
 NEqPCM:  Using equilibrium solvation (IEInf=0, Eps=  78.3553, EpsInf=   1.7778)
 G2PCM: DoFxE=T DoFxN=T DoGrad=T DoDP/DQ/DG/TGxP=FFFF NFrqRd=   0 IEInf=0 SqF1=F DoCFld=F IF1Alg=4.
 End of G2Drv F.D. properties file   721 does not exist.
 End of G2Drv F.D. properties file   722 does not exist.
 End of G2Drv F.D. properties file   788 does not exist.
          IDoAtm=1111111111111111111111111111111
 NEqPCM:  Using equilibrium solvation (IEInf=0, Eps=  78.3553, EpsInf=   1.7778)
          Differentiating once with respect to nuclear coordinates.
          There are    96 degrees of freedom in the 1st order CPHF.  IDoFFX=6 NUNeed=     0.
     90 vectors produced by pass  0 Test12= 2.25D-14 1.04D-09 XBig12= 2.33D-01 1.44D-01.
 AX will form    90 AO Fock derivatives at one time.
     90 vectors produced by pass  1 Test12= 2.25D-14 1.04D-09 XBig12= 2.10D-02 4.31D-02.
     90 vectors produced by pass  2 Test12= 2.25D-14 1.04D-09 XBig12= 5.00D-04 2.58D-03.
     90 vectors produced by pass  3 Test12= 2.25D-14 1.04D-09 XBig12= 3.11D-06 1.93D-04.
     90 vectors produced by pass  4 Test12= 2.25D-14 1.04D-09 XBig12= 1.52D-08 1.53D-05.
     90 vectors produced by pass  5 Test12= 2.25D-14 1.04D-09 XBig12= 8.26D-11 1.36D-06.
     68 vectors produced by pass  6 Test12= 2.25D-14 1.04D-09 XBig12= 3.90D-13 7.33D-08.
     21 vectors produced by pass  7 Test12= 2.25D-14 1.04D-09 XBig12= 2.75D-15 3.59D-09.
     10 vectors produced by pass  8 Test12= 2.25D-14 1.04D-09 XBig12= 6.76D-16 2.74D-09.
     10 vectors produced by pass  9 Test12= 2.25D-14 1.04D-09 XBig12= 1.37D-15 3.41D-09.
     10 vectors produced by pass 10 Test12= 2.25D-14 1.04D-09 XBig12= 7.92D-15 8.63D-09.
     10 vectors produced by pass 11 Test12= 2.25D-14 1.04D-09 XBig12= 7.05D-15 7.12D-09.
      7 vectors produced by pass 12 Test12= 2.25D-14 1.04D-09 XBig12= 1.80D-15 4.57D-09.
      7 vectors produced by pass 13 Test12= 2.25D-14 1.04D-09 XBig12= 6.51D-15 5.65D-09.
      7 vectors produced by pass 14 Test12= 2.25D-14 1.04D-09 XBig12= 2.93D-15 5.24D-09.
      7 vectors produced by pass 15 Test12= 2.25D-14 1.04D-09 XBig12= 2.53D-15 4.80D-09.
      7 vectors produced by pass 16 Test12= 2.25D-14 1.04D-09 XBig12= 2.55D-15 4.85D-09.
      7 vectors produced by pass 17 Test12= 2.25D-14 1.04D-09 XBig12= 1.41D-15 2.74D-09.
      7 vectors produced by pass 18 Test12= 2.25D-14 1.04D-09 XBig12= 7.08D-15 7.43D-09.
      6 vectors produced by pass 19 Test12= 2.25D-14 1.04D-09 XBig12= 2.31D-15 3.42D-09.
      6 vectors produced by pass 20 Test12= 2.25D-14 1.04D-09 XBig12= 7.56D-15 8.89D-09.
      6 vectors produced by pass 21 Test12= 2.25D-14 1.04D-09 XBig12= 2.97D-15 4.91D-09.
      6 vectors produced by pass 22 Test12= 2.25D-14 1.04D-09 XBig12= 3.02D-15 4.51D-09.
      5 vectors produced by pass 23 Test12= 2.25D-14 1.04D-09 XBig12= 1.34D-15 3.51D-09.
      5 vectors produced by pass 24 Test12= 2.25D-14 1.04D-09 XBig12= 4.34D-15 5.93D-09.
      5 vectors produced by pass 25 Test12= 2.25D-14 1.04D-09 XBig12= 3.43D-15 4.54D-09.
      5 vectors produced by pass 26 Test12= 2.25D-14 1.04D-09 XBig12= 3.91D-15 5.00D-09.
      5 vectors produced by pass 27 Test12= 2.25D-14 1.04D-09 XBig12= 1.66D-15 2.94D-09.
      5 vectors produced by pass 28 Test12= 2.25D-14 1.04D-09 XBig12= 4.48D-15 5.37D-09.
      5 vectors produced by pass 29 Test12= 2.25D-14 1.04D-09 XBig12= 2.60D-15 4.88D-09.
      5 vectors produced by pass 30 Test12= 2.25D-14 1.04D-09 XBig12= 2.44D-15 3.72D-09.
      4 vectors produced by pass 31 Test12= 2.25D-14 1.04D-09 XBig12= 1.36D-15 2.21D-09.
      4 vectors produced by pass 32 Test12= 2.25D-14 1.04D-09 XBig12= 1.66D-15 2.94D-09.
      4 vectors produced by pass 33 Test12= 2.25D-14 1.04D-09 XBig12= 2.80D-15 5.16D-09.
      4 vectors produced by pass 34 Test12= 2.25D-14 1.04D-09 XBig12= 2.93D-15 4.07D-09.
      4 vectors produced by pass 35 Test12= 2.25D-14 1.04D-09 XBig12= 2.77D-15 4.48D-09.
      4 vectors produced by pass 36 Test12= 2.25D-14 1.04D-09 XBig12= 7.47D-15 6.43D-09.
      4 vectors produced by pass 37 Test12= 2.25D-14 1.04D-09 XBig12= 3.90D-15 3.57D-09.
      4 vectors produced by pass 38 Test12= 2.25D-14 1.04D-09 XBig12= 2.01D-15 3.35D-09.
      2 vectors produced by pass 39 Test12= 2.25D-14 1.04D-09 XBig12= 6.80D-16 1.79D-09.
 InvSVY:  IOpt=1 It=  1 EMax= 7.77D-16
 Solved reduced A of dimension   816 with    96 vectors.
 End of Minotr F.D. properties file   721 does not exist.
 End of Minotr F.D. properties file   722 does not exist.
 End of Minotr F.D. properties file   788 does not exist.

 **********************************************************************

            Population analysis using the SCF density.

 **********************************************************************

 Orbital symmetries:
       Occupied  (A) (A) (A) (A) (A) (A) (A) (A) (A) (A) (A) (A)
                 (A) (A) (A) (A) (A) (A) (A) (A) (A) (A) (A) (A)
                 (A) (A) (A) (A) (A) (A) (A) (A) (A) (A) (A) (A)
                 (A) (A) (A) (A) (A) (A) (A) (A) (A) (A) (A) (A)
                 (A) (A) (A) (A) (A) (A) (A) (A) (A) (A) (A) (A)
                 (A) (A) (A) (A) (A) (A) (A) (A) (A) (A) (A) (A)
       Virtual   (A) (A) (A) (A) (A) (A) (A) (A) (A) (A) (A) (A)
                 (A) (A) (A) (A) (A) (A) (A) (A) (A) (A) (A) (A)
                 (A) (A) (A) (A) (A) (A) (A) (A) (A) (A) (A) (A)
                 (A) (A) (A) (A) (A) (A) (A) (A) (A) (A) (A) (A)
                 (A) (A) (A) (A) (A) (A) (A) (A) (A) (A) (A) (A)
                 (A) (A) (A) (A) (A) (A) (A) (A) (A) (A) (A) (A)
                 (A) (A) (A) (A) (A) (A) (A) (A) (A) (A) (A) (A)
                 (A) (A) (A) (A) (A) (A) (A) (A) (A) (A) (A) (A)
                 (A) (A) (A) (A) (A) (A) (A) (A) (A) (A) (A) (A)
                 (A) (A) (A) (A) (A) (A) (A) (A) (A) (A) (A) (A)
                 (A) (A) (A) (A) (A) (A) (A) (A) (A) (A) (A) (A)
                 (A) (A) (A) (A) (A) (A) (A) (A) (A) (A) (A) (A)
                 (A) (A) (A) (A) (A) (A) (A) (A) (A) (A) (A) (A)
                 (A) (A) (A) (A) (A) (A) (A) (A) (A) (A) (A) (A)
                 (A) (A) (A) (A) (A) (A) (A) (A) (A) (A) (A) (A)
                 (A) (A) (A) (A) (A) (A) (A) (A) (A) (A) (A) (A)
                 (A) (A) (A) (A) (A) (A) (A) (A) (A) (A) (A) (A)
                 (A) (A) (A) (A) (A) (A) (A) (A) (A) (A) (A) (A)
                 (A) (A) (A) (A) (A) (A) (A) (A) (A) (A) (A) (A)
                 (A) (A) (A) (A) (A) (A) (A) (A) (A) (A) (A) (A)
                 (A) (A) (A) (A) (A) (A) (A) (A) (A) (A) (A) (A)
                 (A) (A) (A) (A) (A) (A) (A) (A) (A) (A) (A) (A)
                 (A) (A) (A) (A) (A) (A) (A) (A) (A) (A) (A) (A)
                 (A) (A) (A) (A) (A) (A) (A) (A) (A) (A) (A) (A)
                 (A) (A) (A) (A) (A) (A) (A) (A) (A) (A) (A) (A)
 The electronic state is 1-A.
 Alpha  occ. eigenvalues --  -89.96161 -25.32169 -25.31981 -25.31960 -19.61799
 Alpha  occ. eigenvalues --  -14.80840 -14.78608 -10.84763 -10.69052 -10.62628
 Alpha  occ. eigenvalues --  -10.59638 -10.57998 -10.57280 -10.57169 -10.56694
 Alpha  occ. eigenvalues --  -10.56356 -10.54494 -10.53415  -8.30575  -6.22660
 Alpha  occ. eigenvalues --   -6.22404  -6.21939  -1.45831  -1.38182  -1.38136
 Alpha  occ. eigenvalues --   -1.19079  -1.05384  -1.02554  -0.97575  -0.91327
 Alpha  occ. eigenvalues --   -0.87617  -0.85807  -0.84421  -0.78910  -0.76620
 Alpha  occ. eigenvalues --   -0.71935  -0.70388  -0.69532  -0.69221  -0.67563
 Alpha  occ. eigenvalues --   -0.66643  -0.64225  -0.63243  -0.61041  -0.58113
 Alpha  occ. eigenvalues --   -0.57995  -0.55587  -0.55343  -0.54918  -0.54539
 Alpha  occ. eigenvalues --   -0.53409  -0.53207  -0.52910  -0.51946  -0.50833
 Alpha  occ. eigenvalues --   -0.50692  -0.49205  -0.47395  -0.46456  -0.45908
 Alpha  occ. eigenvalues --   -0.44295  -0.42230  -0.41805  -0.41172  -0.39574
 Alpha  occ. eigenvalues --   -0.39229  -0.38076  -0.35548  -0.33230  -0.32318
 Alpha  occ. eigenvalues --   -0.31959  -0.28114
 Alpha virt. eigenvalues --   -0.00856   0.00673   0.01243   0.01997   0.02479
 Alpha virt. eigenvalues --    0.03583   0.03723   0.04160   0.04246   0.04739
 Alpha virt. eigenvalues --    0.04965   0.05576   0.06199   0.06903   0.07064
 Alpha virt. eigenvalues --    0.07324   0.07519   0.08248   0.08514   0.08793
 Alpha virt. eigenvalues --    0.09261   0.09782   0.10156   0.10668   0.10919
 Alpha virt. eigenvalues --    0.11378   0.11930   0.12235   0.12731   0.13210
 Alpha virt. eigenvalues --    0.14088   0.14265   0.14782   0.15068   0.15398
 Alpha virt. eigenvalues --    0.15937   0.16303   0.17131   0.17338   0.17606
 Alpha virt. eigenvalues --    0.18267   0.18456   0.18785   0.19085   0.19482
 Alpha virt. eigenvalues --    0.19897   0.20863   0.21286   0.22120   0.22294
 Alpha virt. eigenvalues --    0.22386   0.22744   0.23141   0.23299   0.24048
 Alpha virt. eigenvalues --    0.24397   0.25300   0.25573   0.25685   0.26060
 Alpha virt. eigenvalues --    0.26435   0.26685   0.27271   0.27831   0.28290
 Alpha virt. eigenvalues --    0.28732   0.29311   0.29984   0.30051   0.30256
 Alpha virt. eigenvalues --    0.30771   0.31384   0.32299   0.32387   0.32779
 Alpha virt. eigenvalues --    0.33094   0.33484   0.33681   0.33883   0.34634
 Alpha virt. eigenvalues --    0.35197   0.35926   0.36692   0.37052   0.37343
 Alpha virt. eigenvalues --    0.38156   0.38184   0.38736   0.38980   0.39453
 Alpha virt. eigenvalues --    0.39528   0.40445   0.41052   0.41694   0.43023
 Alpha virt. eigenvalues --    0.44760   0.44837   0.45839   0.46434   0.48088
 Alpha virt. eigenvalues --    0.49114   0.50133   0.51715   0.53501   0.53734
 Alpha virt. eigenvalues --    0.57813   0.58080   0.59934   0.64691   0.65608
 Alpha virt. eigenvalues --    0.68057   0.68859   0.70520   0.70771   0.71945
 Alpha virt. eigenvalues --    0.72599   0.73042   0.74067   0.75331   0.75432
 Alpha virt. eigenvalues --    0.76394   0.77137   0.78726   0.79478   0.80206
 Alpha virt. eigenvalues --    0.82243   0.82706   0.83925   0.84792   0.85222
 Alpha virt. eigenvalues --    0.85873   0.87634   0.87933   0.90299   0.91520
 Alpha virt. eigenvalues --    0.92782   0.93214   0.95387   0.97700   0.98678
 Alpha virt. eigenvalues --    0.99384   0.99835   1.00197   1.01296   1.01898
 Alpha virt. eigenvalues --    1.02623   1.03195   1.04165   1.04238   1.06008
 Alpha virt. eigenvalues --    1.06127   1.07129   1.09543   1.11104   1.12485
 Alpha virt. eigenvalues --    1.13386   1.14110   1.14479   1.15829   1.16237
 Alpha virt. eigenvalues --    1.17322   1.18655   1.21017   1.21560   1.23846
 Alpha virt. eigenvalues --    1.26896   1.28923   1.29863   1.30807   1.31189
 Alpha virt. eigenvalues --    1.31775   1.32677   1.34216   1.35581   1.37845
 Alpha virt. eigenvalues --    1.39178   1.40007   1.42068   1.42765   1.43901
 Alpha virt. eigenvalues --    1.45968   1.47266   1.48276   1.48885   1.51147
 Alpha virt. eigenvalues --    1.53679   1.54574   1.54847   1.57192   1.57887
 Alpha virt. eigenvalues --    1.59243   1.62019   1.63815   1.65079   1.67394
 Alpha virt. eigenvalues --    1.68536   1.69315   1.70774   1.72537   1.73230
 Alpha virt. eigenvalues --    1.75027   1.75162   1.78258   1.79521   1.81662
 Alpha virt. eigenvalues --    1.83565   1.84473   1.86256   1.86434   1.87985
 Alpha virt. eigenvalues --    1.88394   1.89261   1.89687   1.90101   1.91645
 Alpha virt. eigenvalues --    1.91967   1.92417   1.93570   1.95334   1.96630
 Alpha virt. eigenvalues --    1.98702   1.99708   2.00910   2.01646   2.02463
 Alpha virt. eigenvalues --    2.03464   2.04013   2.04970   2.05963   2.06948
 Alpha virt. eigenvalues --    2.08012   2.09997   2.11033   2.12459   2.14651
 Alpha virt. eigenvalues --    2.16745   2.17470   2.18085   2.20176   2.22065
 Alpha virt. eigenvalues --    2.23082   2.24871   2.25505   2.28268   2.28689
 Alpha virt. eigenvalues --    2.30124   2.32802   2.34273   2.34440   2.36677
 Alpha virt. eigenvalues --    2.37479   2.39441   2.41119   2.42579   2.43474
 Alpha virt. eigenvalues --    2.49670   2.55892   2.57687   2.62440   2.64203
 Alpha virt. eigenvalues --    2.65646   2.66718   2.67609   2.71012   2.72071
 Alpha virt. eigenvalues --    2.73552   2.75563   2.77779   2.78059   2.79217
 Alpha virt. eigenvalues --    2.80137   2.81858   2.89787   2.97514   3.04940
 Alpha virt. eigenvalues --    3.11360   3.12559   3.16123   3.23707   3.26395
 Alpha virt. eigenvalues --    3.31939   3.40227   4.01555   4.14743   4.25339
 Alpha virt. eigenvalues --    4.27907   4.30707   4.34415   4.41577   4.42595
 Alpha virt. eigenvalues --    4.43820   4.48216   4.49503   4.53277   4.60412
 Alpha virt. eigenvalues --    4.66388   4.76791   5.56139   5.66960   6.27027
          Condensed to atoms (all electrons):
               1          2          3          4          5          6
     1  C    5.635178   0.029705  -0.032545   0.004672  -0.029284  -0.002521
     2  C    0.029705   6.028590  -0.199966  -0.112665   0.017821   0.010566
     3  C   -0.032545  -0.199966   6.259023   0.282327  -0.305773  -0.052764
     4  N    0.004672  -0.112665   0.282327   7.577083   0.425829  -0.208929
     5  C   -0.029284   0.017821  -0.305773   0.425829   5.943001   0.564093
     6  O   -0.002521   0.010566  -0.052764  -0.208929   0.564093   8.538834
     7  N   -0.000135  -0.002976  -0.098094  -0.326871   0.135062  -0.111070
     8  C   -0.004583  -0.006286  -0.212302  -0.093937  -0.827698  -0.330338
     9  C    0.000381  -0.002914   0.016514   0.002783   0.920803   0.255496
    10  C   -0.000792   0.001347  -0.063039  -0.069170  -1.177651  -0.132261
    11  C    0.000004   0.000416   0.002977   0.000337   0.059895   0.009025
    12  C   -0.000085   0.000282  -0.014270  -0.004258  -0.313761   0.001334
    13  C   -0.000305   0.000692  -0.006240   0.011351  -0.241353   0.196203
    14  H    0.407809  -0.086031   0.029911  -0.000075  -0.001992   0.000010
    15  H    0.417726  -0.056149  -0.014611   0.002372  -0.005594  -0.000067
    16  H    0.401766  -0.059463  -0.005994   0.001226   0.006782  -0.000030
    17  H   -0.051368   0.435473  -0.099868  -0.002765   0.027016  -0.000044
    18  H   -0.034773   0.431186  -0.065518   0.005825  -0.014233  -0.000102
    19  H   -0.009119  -0.035578   0.404382  -0.052714   0.003840   0.004446
    20  H    0.013276  -0.047872   0.455069  -0.056587  -0.054320   0.004132
    21  H   -0.001546  -0.010897  -0.037381   0.245880   0.011394   0.009202
    22  H   -0.000027   0.000721  -0.001218   0.008481  -0.028166   0.007652
    23  H   -0.000002   0.000154   0.000087  -0.000942  -0.021075  -0.002153
    24  H    0.000000   0.000006  -0.000117   0.000765  -0.000501  -0.000005
    25  H   -0.000000   0.000000   0.000013   0.000002   0.002397  -0.000000
    26  S   -0.000005   0.000003  -0.001017  -0.000239  -0.052224   0.000410
    27  C    0.000000  -0.000002   0.000104   0.000010   0.008347  -0.000042
    28  F   -0.000000  -0.000000  -0.000001   0.000001  -0.000255   0.000000
    29  F   -0.000000  -0.000000  -0.000000   0.000000  -0.000012   0.000000
    30  F   -0.000000  -0.000000  -0.000007  -0.000002  -0.001499  -0.000002
    31  H   -0.000000   0.000001   0.000005   0.000006   0.000633   0.000185
               7          8          9         10         11         12
     1  C   -0.000135  -0.004583   0.000381  -0.000792   0.000004  -0.000085
     2  C   -0.002976  -0.006286  -0.002914   0.001347   0.000416   0.000282
     3  C   -0.098094  -0.212302   0.016514  -0.063039   0.002977  -0.014270
     4  N   -0.326871  -0.093937   0.002783  -0.069170   0.000337  -0.004258
     5  C    0.135062  -0.827698   0.920803  -1.177651   0.059895  -0.313761
     6  O   -0.111070  -0.330338   0.255496  -0.132261   0.009025   0.001334
     7  N    7.725831   0.103965  -0.348182   0.373106   0.065583  -0.021734
     8  C    0.103965  10.727887  -1.021714   0.030701   0.548955  -1.509290
     9  C   -0.348182  -1.021714  16.039174  -3.184171  -1.201459  -0.226025
    10  C    0.373106   0.030701  -3.184171  14.011838  -2.590955   1.707551
    11  C    0.065583   0.548955  -1.201459  -2.590955   9.780234  -1.595176
    12  C   -0.021734  -1.509290  -0.226025   1.707551  -1.595176   8.673965
    13  C   -0.069971  -1.261003  -5.519714  -2.106598   0.842325  -0.328840
    14  H   -0.000000  -0.000040   0.000003  -0.000002   0.000000  -0.000000
    15  H    0.000128  -0.000193  -0.000100   0.000028   0.000001  -0.000001
    16  H   -0.000010   0.000125   0.000011  -0.000002  -0.000000   0.000000
    17  H   -0.000329   0.001815   0.000053  -0.000034  -0.000022   0.000005
    18  H    0.000344  -0.000964  -0.000066   0.000102   0.000005  -0.000002
    19  H   -0.001157   0.000195   0.002946  -0.000745  -0.000024   0.000034
    20  H    0.000040  -0.008308   0.002460  -0.000628  -0.000005  -0.000048
    21  H    0.016944   0.012662   0.003091  -0.003990  -0.000110  -0.000026
    22  H    0.245015   0.013135   0.003905  -0.055804   0.022958  -0.003024
    23  H   -0.013293   0.090173   0.171980   0.066101  -0.020890   0.022897
    24  H   -0.010465   0.031730   0.088243   0.273740  -0.075774   0.039918
    25  H    0.000284   0.031246  -0.029607  -0.078358   0.347005   0.004048
    26  S   -0.005084  -0.229924  -0.738192   0.135657   0.011621  -0.326577
    27  C    0.001071   0.066250   0.122962  -0.002802   0.023490  -0.135883
    28  F    0.000022  -0.007409   0.015723   0.010916   0.060795  -0.025623
    29  F    0.000003  -0.002428   0.005355   0.002649  -0.002580   0.021807
    30  F   -0.000112  -0.023319  -0.050247   0.034736  -0.120356   0.097596
    31  H   -0.000600   0.010310  -0.013333  -0.032595   0.042261   0.009813
              13         14         15         16         17         18
     1  C   -0.000305   0.407809   0.417726   0.401766  -0.051368  -0.034773
     2  C    0.000692  -0.086031  -0.056149  -0.059463   0.435473   0.431186
     3  C   -0.006240   0.029911  -0.014611  -0.005994  -0.099868  -0.065518
     4  N    0.011351  -0.000075   0.002372   0.001226  -0.002765   0.005825
     5  C   -0.241353  -0.001992  -0.005594   0.006782   0.027016  -0.014233
     6  O    0.196203   0.000010  -0.000067  -0.000030  -0.000044  -0.000102
     7  N   -0.069971  -0.000000   0.000128  -0.000010  -0.000329   0.000344
     8  C   -1.261003  -0.000040  -0.000193   0.000125   0.001815  -0.000964
     9  C   -5.519714   0.000003  -0.000100   0.000011   0.000053  -0.000066
    10  C   -2.106598  -0.000002   0.000028  -0.000002  -0.000034   0.000102
    11  C    0.842325   0.000000   0.000001  -0.000000  -0.000022   0.000005
    12  C   -0.328840  -0.000000  -0.000001   0.000000   0.000005  -0.000002
    13  C   14.248829   0.000000  -0.000010   0.000001   0.000007  -0.000006
    14  H    0.000000   0.486053  -0.024177  -0.023971  -0.003328  -0.002309
    15  H   -0.000010  -0.024177   0.484208  -0.027116  -0.004092   0.003507
    16  H    0.000001  -0.023971  -0.027116   0.484360   0.003736  -0.004149
    17  H    0.000007  -0.003328  -0.004092   0.003736   0.491313  -0.026814
    18  H   -0.000006  -0.002309   0.003507  -0.004149  -0.026814   0.478516
    19  H    0.000682  -0.000154   0.000102   0.000815   0.003136  -0.007134
    20  H    0.000417   0.000282   0.001962  -0.000995  -0.000237   0.003208
    21  H    0.000747  -0.000006  -0.000023   0.000010   0.004762  -0.000037
    22  H    0.021495   0.000000  -0.000000   0.000000   0.000011  -0.000000
    23  H    0.008395   0.000000   0.000000  -0.000000  -0.000000   0.000000
    24  H   -0.044178   0.000000   0.000000  -0.000000  -0.000000   0.000000
    25  H    0.041094  -0.000000   0.000000  -0.000000  -0.000000   0.000000
    26  S    0.384401  -0.000000  -0.000000   0.000000   0.000000  -0.000000
    27  C    0.027754   0.000000   0.000000  -0.000000  -0.000000   0.000000
    28  F   -0.055641  -0.000000   0.000000  -0.000000  -0.000000   0.000000
    29  F   -0.008806  -0.000000   0.000000  -0.000000   0.000000  -0.000000
    30  F    0.065635   0.000000   0.000000  -0.000000  -0.000000   0.000000
    31  H    0.307719  -0.000000   0.000000   0.000000   0.000000   0.000000
              19         20         21         22         23         24
     1  C   -0.009119   0.013276  -0.001546  -0.000027  -0.000002   0.000000
     2  C   -0.035578  -0.047872  -0.010897   0.000721   0.000154   0.000006
     3  C    0.404382   0.455069  -0.037381  -0.001218   0.000087  -0.000117
     4  N   -0.052714  -0.056587   0.245880   0.008481  -0.000942   0.000765
     5  C    0.003840  -0.054320   0.011394  -0.028166  -0.021075  -0.000501
     6  O    0.004446   0.004132   0.009202   0.007652  -0.002153  -0.000005
     7  N   -0.001157   0.000040   0.016944   0.245015  -0.013293  -0.010465
     8  C    0.000195  -0.008308   0.012662   0.013135   0.090173   0.031730
     9  C    0.002946   0.002460   0.003091   0.003905   0.171980   0.088243
    10  C   -0.000745  -0.000628  -0.003990  -0.055804   0.066101   0.273740
    11  C   -0.000024  -0.000005  -0.000110   0.022958  -0.020890  -0.075774
    12  C    0.000034  -0.000048  -0.000026  -0.003024   0.022897   0.039918
    13  C    0.000682   0.000417   0.000747   0.021495   0.008395  -0.044178
    14  H   -0.000154   0.000282  -0.000006   0.000000   0.000000   0.000000
    15  H    0.000102   0.001962  -0.000023  -0.000000   0.000000   0.000000
    16  H    0.000815  -0.000995   0.000010   0.000000  -0.000000  -0.000000
    17  H    0.003136  -0.000237   0.004762   0.000011  -0.000000  -0.000000
    18  H   -0.007134   0.003208  -0.000037  -0.000000   0.000000   0.000000
    19  H    0.483543  -0.036479   0.002126   0.000004  -0.000001   0.000000
    20  H   -0.036479   0.494057   0.001926   0.000004   0.000000   0.000000
    21  H    0.002126   0.001926   0.268211   0.002135   0.000001   0.000003
    22  H    0.000004   0.000004   0.002135   0.256472  -0.000113   0.004461
    23  H   -0.000001   0.000000   0.000001  -0.000113   0.426491  -0.000095
    24  H    0.000000   0.000000   0.000003   0.004461  -0.000095   0.432851
    25  H   -0.000000  -0.000000  -0.000000  -0.000009   0.000011  -0.003553
    26  S    0.000001  -0.000001   0.000002   0.000344   0.000922  -0.001078
    27  C   -0.000000   0.000000  -0.000000  -0.000033  -0.000432   0.000127
    28  F    0.000000  -0.000000  -0.000000   0.000000  -0.000000   0.000013
    29  F    0.000000  -0.000000  -0.000000  -0.000000  -0.000000  -0.000001
    30  F    0.000000  -0.000000  -0.000000   0.000000  -0.000006  -0.000012
    31  H   -0.000000  -0.000000  -0.000000   0.000001  -0.004264   0.000011
              25         26         27         28         29         30
     1  C   -0.000000  -0.000005   0.000000  -0.000000  -0.000000  -0.000000
     2  C    0.000000   0.000003  -0.000002  -0.000000  -0.000000  -0.000000
     3  C    0.000013  -0.001017   0.000104  -0.000001  -0.000000  -0.000007
     4  N    0.000002  -0.000239   0.000010   0.000001   0.000000  -0.000002
     5  C    0.002397  -0.052224   0.008347  -0.000255  -0.000012  -0.001499
     6  O   -0.000000   0.000410  -0.000042   0.000000   0.000000  -0.000002
     7  N    0.000284  -0.005084   0.001071   0.000022   0.000003  -0.000112
     8  C    0.031246  -0.229924   0.066250  -0.007409  -0.002428  -0.023319
     9  C   -0.029607  -0.738192   0.122962   0.015723   0.005355  -0.050247
    10  C   -0.078358   0.135657  -0.002802   0.010916   0.002649   0.034736
    11  C    0.347005   0.011621   0.023490   0.060795  -0.002580  -0.120356
    12  C    0.004048  -0.326577  -0.135883  -0.025623   0.021807   0.097596
    13  C    0.041094   0.384401   0.027754  -0.055641  -0.008806   0.065635
    14  H   -0.000000  -0.000000   0.000000  -0.000000  -0.000000   0.000000
    15  H    0.000000  -0.000000   0.000000   0.000000   0.000000   0.000000
    16  H   -0.000000   0.000000  -0.000000  -0.000000  -0.000000  -0.000000
    17  H   -0.000000   0.000000  -0.000000  -0.000000   0.000000  -0.000000
    18  H    0.000000  -0.000000   0.000000   0.000000  -0.000000   0.000000
    19  H   -0.000000   0.000001  -0.000000   0.000000   0.000000   0.000000
    20  H   -0.000000  -0.000001   0.000000  -0.000000  -0.000000  -0.000000
    21  H   -0.000000   0.000002  -0.000000  -0.000000  -0.000000  -0.000000
    22  H   -0.000009   0.000344  -0.000033   0.000000  -0.000000   0.000000
    23  H    0.000011   0.000922  -0.000432  -0.000000  -0.000000  -0.000006
    24  H   -0.003553  -0.001078   0.000127   0.000013  -0.000001  -0.000012
    25  H    0.427700  -0.007399  -0.003650   0.000186  -0.000089   0.000076
    26  S   -0.007399  16.442702   0.164415  -0.073246  -0.091390  -0.067672
    27  C   -0.003650   0.164415   4.714853   0.139944   0.163423   0.144605
    28  F    0.000186  -0.073246   0.139944   9.295356  -0.033838  -0.044786
    29  F   -0.000089  -0.091390   0.163423  -0.033838   9.272223  -0.030739
    30  F    0.000076  -0.067672   0.144605  -0.044786  -0.030739   9.265984
    31  H   -0.000120  -0.015692   0.001363  -0.000007  -0.000035  -0.000845
              31
     1  C   -0.000000
     2  C    0.000001
     3  C    0.000005
     4  N    0.000006
     5  C    0.000633
     6  O    0.000185
     7  N   -0.000600
     8  C    0.010310
     9  C   -0.013333
    10  C   -0.032595
    11  C    0.042261
    12  C    0.009813
    13  C    0.307719
    14  H   -0.000000
    15  H    0.000000
    16  H    0.000000
    17  H    0.000000
    18  H    0.000000
    19  H   -0.000000
    20  H   -0.000000
    21  H   -0.000000
    22  H    0.000001
    23  H   -0.004264
    24  H    0.000011
    25  H   -0.000120
    26  S   -0.015692
    27  C    0.001363
    28  F   -0.000007
    29  F   -0.000035
    30  F   -0.000845
    31  H    0.426683
 Mulliken charges:
               1
     1  C   -0.743427
     2  C   -0.336163
     3  C   -0.239687
     4  N   -0.639797
     5  C    0.948479
     6  O   -0.761260
     7  N   -0.657316
     8  C   -0.129413
     9  C    0.683842
    10  C   -1.148875
    11  C   -0.210536
    12  C   -0.074631
    13  C   -0.515085
    14  H    0.218018
    15  H    0.222098
    16  H    0.222898
    17  H    0.221573
    18  H    0.233416
    19  H    0.236853
    20  H    0.228643
    21  H    0.474918
    22  H    0.501599
    23  H    0.276053
    24  H    0.263911
    25  H    0.268724
    26  S    0.469260
    27  C    0.564125
    28  F   -0.282151
    29  F   -0.295541
    30  F   -0.269027
    31  H    0.268500
 Sum of Mulliken charges =  -0.00000
 Mulliken charges with hydrogens summed into heavy atoms:
               1
     1  C   -0.080413
     2  C    0.118826
     3  C    0.225809
     4  N   -0.164880
     5  C    0.948479
     6  O   -0.761260
     7  N   -0.155717
     8  C   -0.129413
     9  C    0.959895
    10  C   -0.884964
    11  C    0.058188
    12  C   -0.074631
    13  C   -0.246585
    26  S    0.469260
    27  C    0.564125
    28  F   -0.282151
    29  F   -0.295541
    30  F   -0.269027
 APT charges:
               1
     1  C   -2.690230
     2  C   -0.727850
     3  C   -0.567647
     4  N    0.013957
     5  C    0.595601
     6  O   -0.714921
     7  N   -0.988639
     8  C   -0.923335
     9  C    0.038536
    10  C   -0.914057
    11  C   -0.478069
    12  C    0.109478
    13  C   -0.627115
    14  H    1.166937
    15  H    0.195131
    16  H    0.552775
    17  H    0.322021
    18  H    0.679728
    19  H    0.407567
    20  H    0.473929
    21  H    0.722994
    22  H    0.776610
    23  H    0.543823
    24  H    0.611678
    25  H    0.767921
    26  S    0.074759
    27  C    0.384170
    28  F   -0.220150
    29  F    0.164177
    30  F   -0.419104
    31  H    0.669327
 Sum of APT charges =  -0.00000
 APT charges with hydrogens summed into heavy atoms:
               1
     1  C   -0.775388
     2  C    0.273899
     3  C    0.313849
     4  N    0.736951
     5  C    0.595601
     6  O   -0.714921
     7  N   -0.212029
     8  C   -0.923335
     9  C    0.582359
    10  C   -0.302378
    11  C    0.289852
    12  C    0.109478
    13  C    0.042212
    26  S    0.074759
    27  C    0.384170
    28  F   -0.220150
    29  F    0.164177
    30  F   -0.419104
 Electronic spatial extent (au):  <R**2>=           9849.4934
 Charge=             -0.0000 electrons
 Dipole moment (field-independent basis, Debye):
    X=              6.1928    Y=              6.5044    Z=             -0.4024  Tot=              8.9900
 Quadrupole moment (field-independent basis, Debye-Ang):
   XX=           -104.1216   YY=           -104.8595   ZZ=           -116.6754
   XY=             17.2664   XZ=              7.3723   YZ=             -0.4991
 Traceless Quadrupole moment (field-independent basis, Debye-Ang):
   XX=              4.4306   YY=              3.6926   ZZ=             -8.1232
   XY=             17.2664   XZ=              7.3723   YZ=             -0.4991
 Octapole moment (field-independent basis, Debye-Ang**2):
  XXX=            176.9144  YYY=             28.7228  ZZZ=             26.4351  XYY=            -18.3578
  XXY=             60.3716  XXZ=             14.4377  XZZ=            -17.4634  YZZ=             -0.9237
  YYZ=              3.9326  XYZ=             -0.6860
 Hexadecapole moment (field-independent basis, Debye-Ang**3):
 XXXX=         -11074.4650 YYYY=           -545.5465 ZZZZ=           -450.4394 XXXY=            193.8647
 XXXZ=            118.2153 YYYX=             61.6256 YYYZ=             -9.6002 ZZZX=            -86.6624
 ZZZY=              2.3498 XXYY=          -2008.2807 XXZZ=          -2013.7534 YYZZ=           -183.2328
 XXYZ=             -6.7695 YYXZ=            -14.0580 ZZXY=             -7.4316
 N-N= 1.399297042425D+03 E-N=-5.877544086377D+03  KE= 1.299917106194D+03
  Exact polarizability:   0.000   0.000   0.000   0.000   0.000   0.000
 Approx polarizability: 248.394   4.713 208.361  13.452  -0.257 149.447
 D2PCM: PCM CHGder 2nd derivatives, FixD1E=F FixD2E=F DoIter=F DoCFld=F I1PDM=0
 Calling FoFJK, ICntrl=    100147 FMM=F ISym2X=0 I1Cent= 0 IOpClX= 0 NMat=1 NMatS=1 NMatT=0.
 ***** Axes restored to original set *****
 -------------------------------------------------------------------
 Center     Atomic                   Forces (Hartrees/Bohr)
 Number     Number              X              Y              Z
 -------------------------------------------------------------------
      1        6          -0.006388208   -0.000404139   -0.001466993
      2        6           0.000995175   -0.006576634    0.003405694
      3        6          -0.003580479    0.009289003    0.001155124
      4        7           0.019553739   -0.028634794   -0.000635628
      5        6          -0.014140195   -0.007643294    0.000075551
      6        8           0.000698117    0.036248667    0.001481331
      7        7           0.021151531   -0.018948054   -0.002200665
      8        6          -0.013875544    0.002258445    0.001509031
      9        6           0.005519667   -0.004077047   -0.001200597
     10        6           0.000755789    0.003941829    0.000559167
     11        6          -0.008327904    0.000277314    0.000373512
     12        6           0.001318767    0.002032939   -0.002129513
     13        6          -0.002188260   -0.009972276   -0.001404694
     14        1           0.005573339    0.008954255   -0.001494402
     15        1          -0.003630740   -0.000647829    0.009804584
     16        1           0.001995062   -0.007841158   -0.005904966
     17        1          -0.003169782    0.007457526    0.005657664
     18        1           0.004534322   -0.001981550   -0.010659976
     19        1           0.000506556   -0.002389334   -0.011602305
     20        1           0.002876196   -0.003945378    0.009317607
     21        1          -0.001973217    0.014775828    0.000695015
     22        1           0.004896334    0.012946906    0.000029805
     23        1          -0.007311502   -0.001586621    0.000674351
     24        1          -0.002486978   -0.002336880    0.000071630
     25        1           0.001010889   -0.002194394   -0.000735195
     26       16          -0.002912538   -0.002715170    0.009702523
     27        6           0.003568946    0.005249325   -0.001097517
     28        9          -0.001234888    0.039075681    0.012030212
     29        9          -0.033622534   -0.019495171    0.000699866
     30        9           0.030627226   -0.023193106   -0.017419212
     31        1          -0.000738884    0.002075112    0.000708994
 -------------------------------------------------------------------
 Cartesian Forces:  Max     0.039075681 RMS     0.010705825
 FormGI is forming the generalized inverse of G from B-inverse, IUseBI=4.

 GradGradGradGradGradGradGradGradGradGradGradGradGradGradGradGradGradGrad
 Berny optimization.
 Internal  Forces:  Max     0.039817942 RMS     0.008919078
 Search for a local minimum.
 Step number   1 out of a maximum of  158
 All quantities printed in internal units (Hartrees-Bohrs-Radians)
 Mixed Optimization -- RFO/linear search
 Second derivative matrix not updated -- analytic derivatives used.
 ITU=  0
     Eigenvalues ---   -0.00102  -0.00067   0.00012   0.00148   0.00282
     Eigenvalues ---    0.00319   0.00502   0.00723   0.01105   0.01540
     Eigenvalues ---    0.01682   0.01757   0.01812   0.02193   0.02210
     Eigenvalues ---    0.02388   0.02698   0.02806   0.02835   0.03773
     Eigenvalues ---    0.03921   0.04553   0.04576   0.04661   0.05185
     Eigenvalues ---    0.05986   0.07122   0.08282   0.10864   0.10885
     Eigenvalues ---    0.11484   0.11847   0.12642   0.12705   0.12798
     Eigenvalues ---    0.13393   0.13447   0.13850   0.13961   0.14148
     Eigenvalues ---    0.15209   0.16156   0.16275   0.16516   0.17785
     Eigenvalues ---    0.18360   0.19128   0.19675   0.20243   0.21320
     Eigenvalues ---    0.22112   0.23102   0.23544   0.24829   0.27078
     Eigenvalues ---    0.27852   0.28780   0.30491   0.30667   0.30707
     Eigenvalues ---    0.30883   0.30950   0.31471   0.31557   0.31854
     Eigenvalues ---    0.31984   0.32314   0.33306   0.33399   0.36590
     Eigenvalues ---    0.37580   0.37750   0.37830   0.38178   0.38888
     Eigenvalues ---    0.40329   0.41159   0.41507   0.42045   0.42150
     Eigenvalues ---    0.44180   0.46867   0.47143   0.49100   0.50838
     Eigenvalues ---    0.59884   0.87453
 RFO step:  Lambda=-2.83925680D-02 EMin=-1.02204356D-03
 Linear search not attempted -- first point.
 Iteration  1 RMS(Cart)=  0.18669966 RMS(Int)=  0.03506904
 Iteration  2 RMS(Cart)=  0.06499176 RMS(Int)=  0.00166671
 Iteration  3 RMS(Cart)=  0.00339232 RMS(Int)=  0.00043200
 Iteration  4 RMS(Cart)=  0.00000709 RMS(Int)=  0.00043199
 Iteration  5 RMS(Cart)=  0.00000000 RMS(Int)=  0.00043199
 Variable       Old X    -DE/DX   Delta X   Delta X   Delta X     New X
                                 (Linear)    (Quad)   (Total)
    R1        2.88342   0.00155   0.00000   0.00012   0.00012   2.88354
    R2        2.09843  -0.01025   0.00000  -0.02989  -0.02989   2.06854
    R3        2.09947  -0.01032   0.00000  -0.02921  -0.02921   2.07027
    R4        2.09899  -0.00976   0.00000  -0.02656  -0.02656   2.07243
    R5        2.89752   0.00074   0.00000  -0.01525  -0.01525   2.88226
    R6        2.10119  -0.00971   0.00000  -0.02716  -0.02716   2.07402
    R7        2.10108  -0.01091   0.00000  -0.02879  -0.02879   2.07229
    R8        2.74522   0.00097   0.00000   0.00701   0.00701   2.75223
    R9        2.10215  -0.01099   0.00000  -0.03040  -0.03040   2.07175
   R10        2.10243  -0.01011   0.00000  -0.02916  -0.02916   2.07327
   R11        2.57608  -0.00885   0.00000  -0.02633  -0.02633   2.54976
   R12        1.95088  -0.01483   0.00000  -0.03440  -0.03440   1.91648
   R13        2.30732   0.03626   0.00000   0.03394   0.03394   2.34126
   R14        2.58684   0.00495   0.00000   0.01698   0.01698   2.60382
   R15        2.71970  -0.03179   0.00000  -0.08476  -0.08476   2.63493
   R16        1.95054  -0.01325   0.00000  -0.03184  -0.03184   1.91870
   R17        2.67769  -0.01386   0.00000  -0.02709  -0.02703   2.65066
   R18        2.66317  -0.00771   0.00000  -0.00680  -0.00674   2.65644
   R19        2.64463  -0.00622   0.00000  -0.01222  -0.01222   2.63241
   R20        2.03064   0.00398   0.00000   0.00984   0.00984   2.04048
   R21        2.63893  -0.00843   0.00000  -0.01904  -0.01903   2.61990
   R22        2.04643   0.00273   0.00000   0.00730   0.00730   2.05373
   R23        2.63723   0.00011   0.00000   0.00540   0.00534   2.64257
   R24        2.04562   0.00231   0.00000   0.00625   0.00625   2.05187
   R25        2.63909  -0.00151   0.00000  -0.00277  -0.00284   2.63625
   R26        3.39538  -0.00412   0.00000  -0.02337  -0.02337   3.37202
   R27        2.04654   0.00193   0.00000   0.00543   0.00543   2.05197
   R28        3.44643  -0.00593   0.00000  -0.02711  -0.02711   3.41932
   R29        2.61204  -0.03790   0.00000  -0.08407  -0.08407   2.52798
   R30        2.61042  -0.03796   0.00000  -0.08425  -0.08425   2.52617
   R31        2.61329  -0.03982   0.00000  -0.09099  -0.09099   2.52230
    A1        1.91236   0.00356   0.00000   0.01971   0.01958   1.93194
    A2        1.92500   0.00134   0.00000   0.00891   0.00883   1.93383
    A3        1.92672   0.00190   0.00000   0.00882   0.00877   1.93549
    A4        1.89585  -0.00201   0.00000  -0.00791  -0.00806   1.88778
    A5        1.89743  -0.00258   0.00000  -0.01396  -0.01406   1.88338
    A6        1.90598  -0.00235   0.00000  -0.01627  -0.01627   1.88971
    A7        1.94237   0.00052   0.00000  -0.00518  -0.00516   1.93721
    A8        1.89880   0.00073   0.00000   0.01863   0.01862   1.91741
    A9        1.90286   0.00032   0.00000   0.00735   0.00733   1.91019
   A10        1.91069   0.00004   0.00000  -0.00357  -0.00358   1.90711
   A11        1.91035  -0.00007   0.00000  -0.00323  -0.00323   1.90712
   A12        1.89821  -0.00159   0.00000  -0.01414  -0.01424   1.88398
   A13        1.93666  -0.00169   0.00000  -0.01203  -0.01201   1.92465
   A14        1.90736   0.00223   0.00000   0.00802   0.00798   1.91533
   A15        1.90421   0.00187   0.00000   0.01627   0.01627   1.92048
   A16        1.90902  -0.00056   0.00000  -0.00367  -0.00365   1.90537
   A17        1.90380   0.00060   0.00000   0.00937   0.00940   1.91320
   A18        1.90247  -0.00248   0.00000  -0.01816  -0.01818   1.88429
   A19        2.12855  -0.00396   0.00000  -0.01308  -0.01443   2.11412
   A20        2.07676   0.00041   0.00000  -0.00612  -0.00744   2.06932
   A21        2.07783   0.00355   0.00000   0.01999   0.01858   2.09641
   A22        2.08179   0.01505   0.00000   0.04729   0.04728   2.12907
   A23        2.08433  -0.02680   0.00000  -0.07647  -0.07647   2.00786
   A24        2.11699   0.01176   0.00000   0.02914   0.02914   2.14613
   A25        2.23302   0.00016   0.00000   0.00027  -0.00205   2.23097
   A26        2.02766   0.00384   0.00000   0.01118   0.00878   2.03644
   A27        2.02231  -0.00400   0.00000  -0.01378  -0.01606   2.00625
   A28        2.17356  -0.00013   0.00000  -0.00576  -0.00613   2.16743
   A29        2.05280  -0.00812   0.00000  -0.01652  -0.01687   2.03593
   A30        2.05683   0.00826   0.00000   0.02236   0.02226   2.07909
   A31        2.10457  -0.00408   0.00000  -0.01426  -0.01417   2.09040
   A32        2.15433  -0.00443   0.00000  -0.03845  -0.03853   2.11581
   A33        2.02427   0.00851   0.00000   0.05266   0.05257   2.07684
   A34        2.11671  -0.00210   0.00000  -0.00772  -0.00760   2.10911
   A35        2.09883  -0.00103   0.00000  -0.01229  -0.01236   2.08647
   A36        2.06762   0.00313   0.00000   0.02002   0.01995   2.08757
   A37        2.09713  -0.00227   0.00000  -0.00542  -0.00542   2.09171
   A38        2.08763   0.00018   0.00000   0.00154   0.00154   2.08916
   A39        2.09843   0.00209   0.00000   0.00388   0.00388   2.10231
   A40        2.08800  -0.00030   0.00000   0.00042   0.00034   2.08834
   A41        2.10067   0.00093   0.00000   0.00168   0.00172   2.10239
   A42        2.09448  -0.00063   0.00000  -0.00207  -0.00203   2.09245
   A43        2.10311   0.00050   0.00000   0.00461   0.00457   2.10768
   A44        2.08645  -0.00151   0.00000  -0.00618  -0.00619   2.08026
   A45        2.09362   0.00101   0.00000   0.00161   0.00159   2.09521
   A46        1.66757   0.01196   0.00000   0.03634   0.03634   1.70391
   A47        1.92160   0.02041   0.00000   0.05380   0.05326   1.97485
   A48        1.89485   0.00893   0.00000   0.00738   0.00692   1.90177
   A49        1.93067   0.01778   0.00000   0.04364   0.04307   1.97374
   A50        1.89943  -0.01397   0.00000  -0.02535  -0.02577   1.87366
   A51        1.92396  -0.02242   0.00000  -0.06994  -0.07054   1.85342
   A52        1.89258  -0.01127   0.00000  -0.01050  -0.01095   1.88163
    D1       -3.14133   0.00041   0.00000   0.02505   0.02507  -3.11626
    D2        1.03523  -0.00044   0.00000   0.02053   0.02056   1.05578
    D3       -1.03245   0.00087   0.00000   0.02258   0.02258  -1.00987
    D4        1.05572  -0.00017   0.00000   0.01695   0.01692   1.07264
    D5       -1.05091  -0.00103   0.00000   0.01242   0.01240  -1.03851
    D6       -3.11858   0.00028   0.00000   0.01448   0.01442  -3.10416
    D7       -1.05217   0.00066   0.00000   0.02573   0.02576  -1.02641
    D8        3.12439  -0.00020   0.00000   0.02120   0.02124  -3.13755
    D9        1.05671   0.00111   0.00000   0.02326   0.02326   1.07998
   D10       -2.50325  -0.00159   0.00000  -0.33288  -0.33288  -2.83613
   D11        1.67338  -0.00128   0.00000  -0.32592  -0.32589   1.34749
   D12       -0.40523  -0.00070   0.00000  -0.31828  -0.31829  -0.72351
   D13       -0.40363  -0.00032   0.00000  -0.31528  -0.31530  -0.71892
   D14       -2.51018  -0.00001   0.00000  -0.30832  -0.30831  -2.81849
   D15        1.69440   0.00057   0.00000  -0.30067  -0.30071   1.39369
   D16        1.67545  -0.00227   0.00000  -0.33661  -0.33660   1.33885
   D17       -0.43110  -0.00197   0.00000  -0.32965  -0.32962  -0.76072
   D18       -2.50971  -0.00138   0.00000  -0.32201  -0.32201  -2.83172
   D19        3.13420   0.00018   0.00000   0.07508   0.07475  -3.07424
   D20        0.00210   0.00008   0.00000  -0.02256  -0.02227  -0.02018
   D21       -1.04342   0.00152   0.00000   0.07502   0.07473  -0.96869
   D22        2.10767   0.00141   0.00000  -0.02262  -0.02229   2.08537
   D23        1.03593  -0.00146   0.00000   0.05637   0.05606   1.09199
   D24       -2.09617  -0.00157   0.00000  -0.04127  -0.04096  -2.13713
   D25        0.00868   0.00008   0.00000  -0.03768  -0.03810  -0.02942
   D26       -3.12016  -0.00036   0.00000  -0.03433  -0.03473   3.12830
   D27        3.14077   0.00018   0.00000   0.05988   0.06028  -3.08214
   D28        0.01193  -0.00027   0.00000   0.06323   0.06364   0.07558
   D29        3.13001   0.00030   0.00000   0.00833   0.00801   3.13803
   D30        0.01064   0.00039   0.00000   0.14188   0.14222   0.15286
   D31        0.00144  -0.00018   0.00000   0.01163   0.01129   0.01273
   D32       -3.11793  -0.00009   0.00000   0.14518   0.14550  -2.97243
   D33        0.08175   0.00008   0.00000   0.33025   0.32946   0.41121
[...]
 00000072,-0.00000080,0.00000460,-0.00000006,-0.00000101,-0.00000148,-0
 .00000271,0.00000040,0.00000130,-0.00000505,0.00004423,-0.00003728,0.0
 0006197,-0.00085068,-0.00030713,0.00044128,-0.00469117,-0.02309591,0.0
 2412050,0.02987750,0.00001197,0.00003104,0.00000281,0.00001589,-0.0000
 7559,-0.00000879,-0.00018512,0.00010318,-0.00001635,0.00101451,0.00022
 113,0.00001269,-0.00276041,0.00223274,0.00026571,-0.00003714,-0.001156
 44,-0.00003631,0.00535085,0.00037034,-0.00022136,-0.00400507,-0.000579
 89,0.00061970,0.00115160,0.00854764,-0.00079071,0.00652814,-0.00528632
 ,-0.00138184,-0.02625864,-0.01118969,0.00121386,-0.14362802,-0.0322965
 3,0.02458688,-0.03842238,-0.00943362,0.00257834,0.00001609,-0.00000361
 ,-0.00000154,0.00000107,-0.00000196,0.00000090,0.00000126,-0.00000147,
 -0.00000120,-0.00000266,0.00000542,0.00000375,-0.00000135,0.00000612,-
 0.00000213,0.00008515,-0.00001845,-0.00001658,0.00006486,-0.00001847,0
 .00000335,-0.00000886,-0.00011855,-0.00003434,0.00011454,-0.00026660,-
 0.00007197,-0.00093557,-0.00079205,-0.00022461,-0.00095303,0.00010628,
 -0.00011379,0.00115920,0.00092566,-0.00002974,0.25106062,0.00000435,0.
 00001073,0.00000006,0.00000354,-0.00002737,-0.00000276,-0.00007025,0.0
 0003683,-0.00000011,0.00035541,0.00012008,0.00000461,-0.00092405,0.000
 54088,0.00013258,0.00017534,-0.00024167,-0.00003018,0.00149190,0.00058
 359,-0.00000247,-0.00054307,-0.00271034,0.00002432,0.00347469,0.001132
 96,0.00008047,-0.00015865,-0.00408041,-0.00199105,-0.02882525,-0.00482
 538,0.00227854,-0.03029456,-0.04811711,0.00735582,0.00845202,0.0075732
 7,-0.00050344,0.00000587,-0.00000116,-0.00000063,0.00000028,-0.0000006
 4,0.00000049,0.00000043,-0.00000038,-0.00000040,0.00000014,0.00000251,
 0.00000130,-0.00000030,0.00000290,-0.00000083,0.00002772,-0.00000847,-
 0.00000634,0.00002236,-0.00000647,0.00000087,0.00000037,-0.00004002,-0
 .00000692,0.00015011,-0.00008203,-0.00007787,0.00039440,0.00018667,-0.
 00004735,-0.00115339,-0.00006634,-0.00007423,-0.00073257,0.00057138,0.
 00071703,0.05232715,0.08226748,-0.00000642,-0.00001589,0.00000205,-0.0
 0000908,0.00003601,0.00000455,0.00008961,-0.00006551,0.00000974,-0.000
 48670,-0.00013031,0.00006543,0.00113528,-0.00082014,-0.00020458,-0.000
 19155,0.00041766,-0.00000303,-0.00197923,-0.00002308,-0.00068056,0.001
 17340,0.00029033,-0.00060107,-0.00010911,-0.00074645,0.00558143,-0.000
 61225,-0.00081350,0.00529111,-0.00321745,0.00058245,0.00098863,0.00661
 729,0.00242912,-0.04241977,0.00087267,-0.00058398,0.00049189,-0.000007
 56,0.00000163,0.00000074,-0.00000048,0.00000116,-0.00000053,-0.0000002
 1,0.00000094,0.00000058,0.00000005,-0.00000353,-0.00000242,0.00000026,
 -0.00000238,0.00000049,-0.00004081,0.00000920,0.00000422,-0.00002095,0
 .00001503,-0.00000638,0.,0.00004792,0.00002797,-0.00002980,0.00009610,
 0.00002783,-0.00008393,-0.00005439,0.00033416,-0.00028425,-0.00014237,
 0.00030071,-0.00025693,0.00022269,-0.00264455,0.00044138,-0.01961340,0
 .25046901,0.00000088,0.00000161,-0.00000055,0.00000109,-0.00000214,-0.
 00000037,-0.00000443,0.00000786,0.00000655,0.00002793,0.00000757,0.000
 02127,0.00000426,-0.00005752,-0.00004106,0.00007540,0.00003461,-0.0000
 0668,-0.00019572,-0.00005364,-0.00015417,0.00025360,0.00021523,-0.0002
 2956,-0.00044524,-0.00056067,0.00172385,-0.00037645,0.00021018,0.00104
 712,0.00015736,0.00082200,-0.00041596,-0.01604032,-0.00065591,-0.02118
 293,-0.00027784,-0.00108168,-0.00106781,0.00000115,0.00000036,-0.00000
 010,0.00000005,-0.00000060,0.00000016,-0.00000054,-0.00000010,0.000000
 28,0.00000037,0.00000090,0.00000087,-0.00000048,-0.00000048,0.00000015
 ,-0.00000426,-0.00000283,-0.00000091,0.00000219,0.00000045,-0.00000134
 ,-0.00000112,-0.00000100,0.00000288,-0.00000418,0.00000847,-0.00001147
 ,-0.00000666,0.00000407,0.00014176,0.00009057,0.00001526,0.00008685,0.
 00000882,-0.00025076,-0.00051374,-0.03526596,-0.00321368,0.00454889,0.
 49739162,-0.00000235,-0.00000506,0.00000019,-0.00000140,0.00001251,0.0
 0000108,0.00002659,-0.00001620,0.00000063,-0.00016343,-0.00005044,0.00
 000112,0.00039355,-0.00024379,-0.00011177,-0.00006564,0.00012014,0.000
 02385,-0.00071951,-0.00007230,0.00002683,0.00062397,-0.00017495,-0.000
 16338,0.00019252,-0.00015728,-0.00075562,-0.00080027,-0.00055002,0.001
 60976,-0.00219267,0.00061624,-0.00082663,-0.00128781,-0.00455313,-0.00
 729330,0.00096867,0.00012407,0.00065757,-0.00000294,0.00000035,0.00000
 013,0.00000044,0.,0.00000065,0.00000021,0.00000049,-0.00000061,-0.0000
 0032,-0.00000094,-0.00000127,-0.00000042,-0.00000191,0.00000166,-0.000
 01174,0.00000431,0.00000152,-0.00000926,0.00000211,0.00000148,-0.00000
 155,0.00001937,0.00000019,-0.00001546,0.00003952,0.00005964,-0.0000043
 7,0.00000915,-0.00004224,-0.00014066,-0.00005479,0.00011158,-0.0000850
 4,-0.00031439,-0.00100565,-0.00160555,-0.02745941,0.01294836,0.0079908
 2,0.47185424,0.00001843,0.00004678,0.00000479,0.00002867,-0.00010896,-
 0.00001182,-0.00027395,0.00020344,-0.00000672,0.00148584,0.00038286,-0
 .00000576,-0.00346218,0.00236081,0.00033803,0.00080467,-0.00117650,-0.
 00007802,0.00571878,0.00027850,-0.00022481,-0.00367181,-0.00139426,0.0
 0026171,0.00227771,-0.00004140,-0.00099168,0.00185823,0.00110363,-0.00
 055959,0.00558354,-0.00090138,-0.00088691,-0.01829806,-0.00653101,0.00
 713450,0.00457911,0.00408936,-0.00023857,0.00002366,-0.00000575,-0.000
 00206,0.00000064,-0.00000197,0.00000081,0.00000282,-0.00000318,-0.0000
 0277,-0.00000299,0.00000667,0.00000333,-0.00000069,0.00001126,-0.00000
 342,0.00010712,-0.00003836,-0.00002847,0.00008129,-0.00002856,0.000001
 51,-0.00000281,-0.00014499,-0.00002249,0.00012233,-0.00028154,-0.00003
 336,0.00057528,0.00029678,-0.00002653,0.00091519,0.00035058,-0.0000210
 8,-0.00042402,-0.00054062,0.00027988,-0.01070879,0.00915397,-0.1388501
 5,-0.00524981,-0.00136000,0.47363318,-0.00000017,-0.00000116,0.0000008
 1,-0.00000131,0.00000215,0.00000044,0.00000600,-0.00000562,-0.00000393
 ,-0.00002706,-0.00000521,-0.00000352,0.00004629,-0.00002264,0.00000427
 ,-0.00001907,0.00000863,0.00000026,-0.00003795,-0.00001260,-0.00000060
 ,-0.00006032,0.00036901,0.00010703,-0.00029942,-0.00018671,-0.00007405
 ,0.00044032,-0.00005775,-0.00009229,-0.00034123,-0.00001928,-0.0004066
 1,0.00126038,0.00023361,-0.00003651,0.00064359,-0.00000031,0.00000742,
 -0.00000055,-0.00000002,0.00000014,-0.00000012,0.00000033,-0.00000014,
 0.00000025,0.00000012,0.00000002,0.00000007,-0.00000030,-0.00000021,0.
 00000052,0.00000028,-0.00000011,-0.00000054,0.00000073,0.00000007,-0.0
 0000248,0.00000086,0.00000038,0.00000174,0.00000306,0.00000182,0.00000
 113,0.00000411,0.00000268,0.00000799,-0.00000705,0.00000290,-0.0000168
 7,-0.00000961,-0.00001283,-0.00006997,0.00008107,0.00009676,0.00527006
 ,0.00230772,-0.00336109,-0.06690312,-0.01652330,0.00582825,0.08159216,
 0.00000330,0.00000830,-0.00000044,0.00000431,-0.00002026,-0.00000158,-
 0.00004740,0.00003244,0.00000405,0.00026864,0.00007277,0.00000112,-0.0
 0065175,0.00043724,0.00005527,0.00013653,-0.00021805,-0.00001326,0.001
 13481,0.00004731,-0.00006031,-0.00095021,0.00035043,0.00010162,-0.0000
 9047,-0.00017835,-0.00002096,0.00116568,0.00011768,-0.00004776,0.00038
 849,-0.00070051,-0.00067143,-0.00252053,0.00045396,-0.00076709,0.00091
 004,0.00059610,-0.00012743,0.00000443,-0.00000098,-0.00000035,-0.00000
 016,-0.00000015,-0.00000028,0.00000025,-0.00000068,-0.00000006,-0.0000
 0023,0.00000124,0.00000102,0.00000003,0.00000243,-0.00000119,0.0000196
 1,-0.00000673,-0.00000436,0.00001559,-0.00000430,-0.00000085,0.0000003
 8,-0.00002874,-0.00000314,0.00002221,-0.00005800,-0.00000274,0.0000901
 4,0.00003222,0.00000991,0.00015132,0.00005263,0.00000823,-0.00008510,0
 .00008493,0.00013888,-0.00119154,-0.01074125,0.01984762,-0.01609345,-0
 .22578334,0.07825430,0.03654994,0.35595314,-0.00000514,-0.00001318,-0.
 00000089,-0.00000804,0.00003094,0.00000297,0.00007634,-0.00005518,0.00
 000011,-0.00041426,-0.00010490,-0.00000021,0.00097769,-0.00066520,-0.0
 0008158,-0.00021619,0.00033166,0.00002068,-0.00163512,-0.00007756,0.00
 008108,0.00116555,0.00017553,-0.00002467,-0.00047018,-0.00011339,0.000
 20615,-0.00084409,-0.00012142,-0.00017550,-0.00088239,0.00066632,0.000
 30190,0.00365657,-0.00003300,0.00090618,-0.00074230,-0.00102998,-0.000
 03109,-0.00000670,0.00000158,0.00000060,0.00000002,0.00000053,-0.00000
 005,-0.00000070,0.00000099,0.00000065,0.00000081,-0.00000182,-0.000001
 02,0.00000025,-0.00000329,0.00000108,-0.00003010,0.00001065,0.00000747
 ,-0.00002390,0.00000742,0.00000040,0.00000140,0.00004204,0.00000615,-0
 .00003187,0.00008538,-0.00000134,-0.00012022,-0.00005552,0.00000406,-0
 .00022022,-0.00008211,-0.00006464,0.00001959,0.00009922,-0.00001506,-0
 .00027206,0.03227900,-0.03109357,0.00774577,0.08892186,-0.10956311,-0.
 01837957,-0.10500517,0.11178930,-0.00000824,-0.00002102,-0.00000064,-0
 .00001232,0.00004887,0.00000545,0.00012172,-0.00008510,0.00000508,-0.0
 0065577,-0.00016629,-0.00000633,0.00157849,-0.00108976,-0.00014446,-0.
 00029641,0.00054899,0.00002422,-0.00268331,-0.00015816,0.00006615,0.00
 186823,0.00066146,-0.00012273,-0.00092841,-0.00076775,0.00044168,-0.00
 119070,0.00006853,0.00055613,-0.00065721,0.00158623,-0.00022714,0.0004
 5531,-0.00016366,-0.00571856,0.00062796,-0.00151343,-0.00043240,-0.000
 01087,0.00000224,0.00000106,-0.00000070,0.00000157,-0.00000073,-0.0000
 0058,0.00000109,0.00000077,0.00000109,-0.00000409,-0.00000254,0.000000
 85,-0.00000382,0.00000098,-0.00004783,0.00001544,0.00001086,-0.0000382
 7,0.00001297,-0.00000134,0.00000347,0.00006702,0.00001680,-0.00005253,
 0.00013676,0.00003229,-0.00011458,-0.00005990,0.00006627,-0.00023086,-
 0.00011351,0.00006831,0.00005965,0.00013792,-0.00021062,-0.02349938,-0
 .00689584,-0.01053666,-0.25564599,-0.05103697,-0.04959414,-0.02721546,
 -0.04368406,0.00828175,0.38222829,-0.00000160,-0.00000406,-0.00000046,
 -0.00000254,0.00000929,0.00000134,0.00002409,-0.00001696,0.00000220,-0
 .00012408,-0.00003131,-0.00000215,0.00030223,-0.00020795,-0.00002078,-
 0.00006298,0.00010487,0.00000263,-0.00050634,-0.00003182,0.00000872,0.
 00035925,0.00009219,-0.00002497,-0.00017765,-0.00000881,0.00022233,-0.
 00029499,0.00020997,-0.00002816,0.00067837,0.00029625,0.00008422,-0.00
 082496,0.00292670,-0.00059070,-0.00044091,-0.00061552,-0.00026488,-0.0
 0000199,0.00000046,0.00000023,-0.00000022,0.00000037,-0.00000028,-0.00
 000017,0.00000018,0.00000030,0.00000027,-0.00000079,-0.00000035,0.0000
 0030,-0.00000058,-0.00000006,-0.00000928,0.00000276,0.00000225,-0.0000
 0746,0.00000269,-0.00000061,0.00000089,0.00001237,0.00000429,-0.000012
 52,0.00002502,0.00000196,-0.00004660,-0.00002861,0.00002066,0.00000549
 ,-0.00001385,0.00000061,0.00005837,0.00003398,0.00003913,-0.00462432,0
 .00279751,-0.00203237,-0.05058462,-0.07813613,-0.01264824,-0.05618802,
 -0.03853239,0.00432490,0.08588282,0.10060945,-0.00000753,-0.00001902,-
 0.00000208,-0.00001136,0.00004471,0.00000500,0.00011160,-0.00007904,0.
 00000830,-0.00060189,-0.00015454,0.00000257,0.00144446,-0.00099538,-0.
 00014840,-0.00029095,0.00049898,0.00002556,-0.00246264,-0.00014474,0.0
 0003483,0.00175222,0.00061695,-0.00017428,-0.00098006,-0.00041496,0.00
 071794,-0.00109002,-0.00017474,0.00067000,-0.00112254,0.00137183,-0.00
 011932,0.00086381,0.00133216,-0.00735037,-0.00036581,-0.00185839,-0.00
 045769,-0.00000976,0.00000226,0.00000089,-0.00000046,0.00000110,-0.000
 00050,-0.00000092,0.00000110,0.00000094,0.00000126,-0.00000323,-0.0000
 0177,0.00000040,-0.00000409,0.00000125,-0.00004537,0.00001429,0.000010
 41,-0.00003358,0.00001195,-0.00000119,0.00000199,0.00006085,0.00001304
 ,-0.00004884,0.00012338,0.00002381,-0.00017016,-0.00009617,0.00007785,
 -0.00027192,-0.00011689,0.00007577,0.00011217,0.00005572,-0.00030176,-
 0.03232157,-0.00861291,-0.00384173,-0.05437617,-0.01390441,-0.08503648
 ,0.01765727,0.01224447,0.01134169,0.03988362,0.01166619,0.07590281,0.0
 0000086,0.00000210,0.00000158,0.00000137,-0.00000584,-0.00000128,-0.00
 001888,0.00001193,-0.00000733,0.00009058,0.00002249,-0.00000351,-0.000
 21747,0.00016469,0.00006656,0.00002759,-0.00008073,-0.00001255,0.00039
 600,0.00005757,-0.00001530,-0.00009239,-0.00073725,-0.00002871,0.00079
 998,0.00049346,-0.00008240,-0.00043990,0.00005219,0.00002193,0.0010040
 7,0.00039565,-0.00008807,0.00002652,-0.00046891,-0.00087376,-0.0002701
 9,0.00028889,-0.00069384,0.00000108,-0.00000059,-0.00000008,0.,0.00000
 009,0.,0.00000044,-0.00000017,-0.00000039,-0.00000028,-0.00000007,-0.0
 0000024,0.00000016,0.00000090,-0.00000010,0.00000785,-0.00000235,-0.00
 000288,0.00000509,-0.00000139,0.00000039,0.00000052,-0.00000851,-0.000
 00015,0.00001074,-0.00001863,-0.00000211,0.00004033,0.00002157,-0.0000
 0609,0.00005184,0.00002601,0.00000912,0.00000107,-0.00007487,0.0000359
 0,0.00256552,0.00255662,0.00622568,-0.12256614,0.06422624,0.06222636,0
 .00569193,0.02458385,0.00220026,-0.07378480,0.02661807,0.03228549,0.18
 662673,-0.00000130,-0.00000456,0.00000077,-0.00000368,0.00001058,0.000
 00109,0.00002829,-0.00001999,-0.00000830,-0.00014704,-0.00003320,-0.00
 000268,0.00035450,-0.00026140,-0.00001761,-0.00007396,0.00013095,0.000
 01292,-0.00059493,-0.00004397,0.00003202,0.00033900,0.00041868,0.00002
 074,-0.00050954,-0.00018509,-0.00000701,0.00002480,-0.00003056,-0.0000
 7287,-0.00036919,0.00005443,0.00012458,0.00163784,0.00114701,0.0005772
 3,-0.00006982,-0.00063305,0.00015763,-0.00000212,0.00000075,0.00000027
 ,-0.00000027,0.00000022,-0.00000033,-0.00000033,0.00000034,0.00000054,
 0.00000046,-0.00000041,0.00000006,0.00000061,-0.00000081,-0.00000014,-
 0.00001070,0.00000365,0.00000351,-0.00000957,0.00000262,0.00000004,0.0
 0000176,0.00001388,0.00000153,-0.00001173,0.00002830,0.00000299,-0.000
 05578,-0.00002873,-0.00000189,-0.00007461,-0.00003252,-0.00000954,0.00
 006045,0.00008893,0.00005811,0.00458156,0.00146631,-0.01224613,0.06280
 030,-0.13507597,-0.07149416,0.03346525,-0.08205877,-0.01951938,0.01662
 122,0.01053735,-0.00152595,-0.11797745,0.20444319,-0.00000569,-0.00001
 494,0.00000003,-0.00000967,0.00003441,0.00000288,0.00008364,-0.0000613
 0,-0.00000896,-0.00045946,-0.00011326,-0.00000294,0.00109128,-0.000761
 52,-0.00008291,-0.00023969,0.00037875,0.00003335,-0.00180982,-0.000114
 58,0.00011307,0.00116502,0.00072140,-0.00004473,-0.00095770,-0.0003118
 8,-0.00021771,-0.00049076,-0.00015405,0.00018052,-0.00125332,0.0004916
 7,0.00012707,0.00363328,0.00214738,0.00121745,-0.00044015,-0.00134039,
 0.00008835,-0.00000720,0.00000194,0.00000069,-0.00000026,0.00000050,-0
 .00000043,-0.00000112,0.00000102,0.00000109,0.00000118,-0.00000185,-0.
 00000065,0.00000061,-0.00000363,0.00000079,-0.00003323,0.00001216,0.00
 000934,-0.00002694,0.00000792,0.00000011,0.00000189,0.00004568,0.00000
 345,-0.00003920,0.00009066,0.00002016,-0.00014721,-0.00006940,-0.00007
 087,-0.00022550,-0.00010069,0.00000228,0.00011993,0.00020396,-0.000076
 32,0.01623716,-0.02102404,-0.04058099,0.06882557,-0.07938883,-0.145603
 37,-0.00140158,-0.00395514,0.01650711,0.01774552,-0.00066683,0.0088611
 3,-0.10149389,0.10398959,0.15945410,-0.00000356,-0.00000994,-0.0000014
 3,-0.00000753,0.00002111,0.00000412,0.00004853,-0.00004798,-0.00000063
 ,-0.00025553,-0.00001242,0.00000562,0.00062889,-0.00036629,-0.00003957
 ,-0.00014381,0.00021841,0.00001578,-0.00018603,-0.00167888,-0.00009235
 ,-0.00497733,-0.00052909,0.00064879,-0.00339371,-0.02907360,-0.0018744
 7,-0.00100769,0.00017062,0.00002450,-0.00327641,0.00310711,0.00075853,
 0.00727474,0.02208919,0.00141186,-0.07451824,-0.06939914,-0.00337751,-
 0.00000437,0.00000121,0.00000046,-0.00000034,0.00000072,-0.00000043,-0
 .00000032,0.00000055,0.00000058,0.00000027,-0.00000149,-0.00000090,0.0
 0000017,-0.00000170,0.00000031,-0.00001515,0.00000787,0.00000524,-0.00
 001235,0.00000687,-0.00000135,0.00001312,0.00003410,0.00000019,-0.0004
 3822,-0.00003524,0.00000403,0.00142298,0.00039766,-0.00028865,0.000162
 15,-0.00007915,-0.00005064,0.00060852,0.00111162,0.00006139,0.00155226
 ,0.00106121,0.00012994,-0.00027685,0.00024766,-0.00054864,0.00003321,-
 0.00013464,0.00017703,0.00012913,-0.00001889,0.00009724,0.00003978,-0.
 00000400,0.00013734,0.07660370,-0.00000220,-0.00000650,-0.00000043,-0.
 00000426,0.00001317,0.00000223,0.00003091,-0.00002709,-0.00000331,-0.0
 0016970,-0.00003417,0.00000159,0.00039956,-0.00024927,-0.00003038,-0.0
 0010375,0.00012128,0.00000216,-0.00037169,-0.00021087,0.00000932,-0.00
 024334,0.00174693,-0.00048667,-0.00011854,-0.00237397,-0.00058330,0.00
 017554,0.00057229,0.00013403,0.00379995,-0.00083064,-0.00076100,-0.007
 58859,-0.01569340,-0.00106249,-0.06782779,-0.33344417,-0.01871358,-0.0
 0000302,0.00000063,0.00000029,-0.00000025,0.00000059,-0.00000045,-0.00
 000030,0.00000048,0.00000053,0.00000034,-0.00000102,-0.00000071,0.0000
 0011,-0.00000120,0.00000043,-0.00001136,0.00000475,0.00000334,-0.00000
 980,0.00000394,-0.00000055,0.00000190,0.00001695,0.00000354,-0.0000612
 5,0.00005101,0.00002784,0.00010913,0.00065286,0.00042435,-0.00008032,-
 0.00007105,0.00005502,-0.00031699,-0.00070131,-0.00008595,-0.00079760,
 0.00111533,0.00034723,0.00043939,-0.00015243,0.00016193,0.00001273,0.0
 0008970,-0.00009694,-0.00002977,-0.00003263,0.00005852,-0.00014555,0.0
 0006186,-0.00004474,0.07291652,0.34937796,-0.00000018,-0.00000053,-0.0
 0000036,0.00000031,0.00000047,0.00000049,0.00000358,-0.00000094,0.0000
 0940,-0.00001052,-0.00000677,-0.00001658,0.00001936,-0.00000644,0.0000
 5607,-0.00002026,-0.00001065,0.00006712,-0.00006196,0.00003935,-0.0000
 1490,0.00075879,-0.00037725,0.00764461,0.00039265,0.00102881,0.0049456
 3,-0.00000098,0.00010481,-0.00102268,0.00074357,-0.00081658,0.00584531
 ,-0.00038849,-0.00264233,0.00304959,-0.00328071,-0.01856999,-0.0406029
 6,-0.00000017,0.00000004,-0.00000002,-0.00000016,0.00000025,-0.0000000
 8,0.00000015,-0.00000010,-0.00000012,-0.00000016,-0.00000033,-0.000000
 31,-0.00000004,0.00000017,-0.00000008,-0.00000123,0.00000116,0.0000005
 3,-0.00000037,-0.00000088,-0.00000021,-0.00000178,0.00000007,-0.000009
 60,0.00000079,0.00002287,-0.00022930,-0.00030741,0.00038407,-0.0046827
 6,-0.00005489,0.00005590,-0.00068831,-0.00006459,-0.00013307,0.0003512
 8,0.00028714,-0.00003415,-0.00267122,-0.00089936,0.00048561,0.00053945
 ,0.00006254,0.00001703,-0.00012484,-0.00020868,-0.00010115,-0.00033820
 ,0.00023941,-0.00007762,0.00006691,0.00279365,0.02063818,0.02782613\\0
 .00000022,0.00000328,0.00000102,0.00000002,0.00000314,-0.00000152,-0.0
 0000102,0.00000057,0.00000255,-0.00000480,0.00000407,0.00000092,0.0000
 0201,0.00000150,0.00000041,0.00000087,-0.00000045,0.00000469,0.0000013
 2,0.00000316,-0.00000251,-0.00000124,0.00000020,-0.00000128,-0.0000003
 4,-0.00000081,0.00000333,-0.00000121,0.00000021,-0.00000494,-0.0000005
 0,-0.00000014,-0.00000455,0.00000029,-0.00000094,0.00000034,0.00000014
 ,0.00000071,0.00000404,-0.00000025,0.00000300,-0.00000106,-0.00000009,
 0.00000558,0.00000381,0.00000038,-0.00000013,0.00000398,-0.00000099,0.
 00000565,-0.00000408,-0.00000095,-0.00000018,-0.00000337,0.00000153,-0
 .00000169,0.00000371,-0.00000048,0.00000537,0.00000344,-0.00000029,0.0
 0000096,-0.00000537,-0.00000113,0.00000152,-0.00000513,0.00000185,0.00
 000098,0.00000701,-0.00000183,0.00000099,-0.00000836,-0.00000120,-0.00
 000016,-0.00000753,0.00000222,-0.00000180,0.00000270,0.00000149,-0.000
 00596,0.00000070,0.00000140,-0.00000741,-0.00000259,0.,-0.00000925,0.0
 0000022,0.00000135,-0.00001129,0.00000237,0.00000123,-0.00000069,0.000
 00706\\\@


 ON INDUCTION, OR "WHY DO YOU BELIEVE THE SUN WILL RISE TOMORROW?":

 ... THE FARMER WHO HAS FED THE CHICKEN EVERY DAY THROUGHOUT ITS
 LIFE AT LAST WRINGS ITS NECK INSTEAD, SHOWING THAT MORE REFINED VIEWS
 AS TO THE UNIFORMITY OF NATURE WOULD HAVE BEEN USEFUL TO THE CHICKEN.

                               -- BERTRAND RUSSELL
 Job cpu time:       0 days  3 hours 14 minutes 20.5 seconds.
 File lengths (MBytes):  RWF=    592 Int=      0 D2E=      0 Chk=     25 Scr=      1
 Normal termination of Gaussian 09 at Mon Jul 15 21:46:53 2019.
pbs_rusage has been removed.
Please contact help@nci.org.au if you require this functionality.
