 Entering Gaussian System, Link 0=/apps/gaussian/g09e01/g09/g09
 AtFile(1): /home/507/hio507/Basis/6-31pGd.gbs
 Initial command:
 /apps/gaussian/g09e01/g09/l1.exe "/jobfs/local/1828098.r-man2/Gau-36985.inp" -scrdir="/jobfs/local/1828098.r-man2/"
 Entering Link 1 = /apps/gaussian/g09e01/g09/l1.exe PID=     36990.
  
 Copyright (c) 1988,1990,1992,1993,1995,1998,2003,2009,2015,
            Gaussian, Inc.  All Rights Reserved.
  
 This is part of the Gaussian(R) 09 program.  It is based on
 the Gaussian(R) 03 system (copyright 2003, Gaussian, Inc.),
 the Gaussian(R) 98 system (copyright 1998, Gaussian, Inc.),
 the Gaussian(R) 94 system (copyright 1995, Gaussian, Inc.),
 the Gaussian 92(TM) system (copyright 1992, Gaussian, Inc.),
 the Gaussian 90(TM) system (copyright 1990, Gaussian, Inc.),
 the Gaussian 88(TM) system (copyright 1988, Gaussian, Inc.),
 the Gaussian 86(TM) system (copyright 1986, Carnegie Mellon
 University), and the Gaussian 82(TM) system (copyright 1983,
 Carnegie Mellon University). Gaussian is a federally registered
 trademark of Gaussian, Inc.
  
 This software contains proprietary and confidential information,
 including trade secrets, belonging to Gaussian, Inc.
  
 This software is provided under written license and may be
 used, copied, transmitted, or stored only in accord with that
 written license.
  
 The following legend is applicable only to US Government
 contracts under FAR:
  
                    RESTRICTED RIGHTS LEGEND
  
 Use, reproduction and disclosure by the US Government is
 subject to restrictions as set forth in subparagraphs (a)
 and (c) of the Commercial Computer Software - Restricted
 Rights clause in FAR 52.227-19.
  
 Gaussian, Inc.
 340 Quinnipiac St., Bldg. 40, Wallingford CT 06492
  
  
 ---------------------------------------------------------------
 Warning -- This program may not be used in any manner that
 competes with the business of Gaussian, Inc. or will provide
 assistance to any competitor of Gaussian, Inc.  The licensee
 of this program is prohibited from giving any competitor of
 Gaussian, Inc. access to this program.  By using this program,
 the user acknowledges that Gaussian, Inc. is engaged in the
 business of creating and licensing software in the field of
 computational chemistry and represents and warrants to the
 licensee that it is not a competitor of Gaussian, Inc. and that
 it will not use this program in any manner prohibited above.
 ---------------------------------------------------------------
  

 Cite this work as:
 Gaussian 09, Revision E.01,
 M. J. Frisch, G. W. Trucks, H. B. Schlegel, G. E. Scuseria, 
 M. A. Robb, J. R. Cheeseman, G. Scalmani, V. Barone, B. Mennucci, 
 G. A. Petersson, H. Nakatsuji, M. Caricato, X. Li, H. P. Hratchian, 
 A. F. Izmaylov, J. Bloino, G. Zheng, J. L. Sonnenberg, M. Hada, 
 M. Ehara, K. Toyota, R. Fukuda, J. Hasegawa, M. Ishida, T. Nakajima, 
 Y. Honda, O. Kitao, H. Nakai, T. Vreven, J. A. Montgomery, Jr., 
 J. E. Peralta, F. Ogliaro, M. Bearpark, J. J. Heyd, E. Brothers, 
 K. N. Kudin, V. N. Staroverov, T. Keith, R. Kobayashi, J. Normand, 
 K. Raghavachari, A. Rendell, J. C. Burant, S. S. Iyengar, J. Tomasi, 
 M. Cossi, N. Rega, J. M. Millam, M. Klene, J. E. Knox, J. B. Cross, 
 V. Bakken, C. Adamo, J. Jaramillo, R. Gomperts, R. E. Stratmann, 
 O. Yazyev, A. J. Austin, R. Cammi, C. Pomelli, J. W. Ochterski, 
 R. L. Martin, K. Morokuma, V. G. Zakrzewski, G. A. Voth, 
 P. Salvador, J. J. Dannenberg, S. Dapprich, A. D. Daniels, 
 O. Farkas, J. B. Foresman, J. V. Ortiz, J. Cioslowski, 
 and D. J. Fox, Gaussian, Inc., Wallingford CT, 2013.
 
 ******************************************
 Gaussian 09:  ES64L-G09RevE.01 30-Nov-2015
                30-Oct-2018 
 ******************************************
 %chk=4SsulfCF3_a1.M062X_6-31pGd_opt_water.chk
 %mem=196608000
 %nproc=4
 Will use up to    4 processors via shared memory.
 ----------------------------------------------------------------------
 # M062X/Gen 6D SCF=Tight INT(grid=ultrafine) OPT IOP(2/17=4) SCRF=(SMD
 ,Solvent=h2o) maxdisk=2147483648
 ----------------------------------------------------------------------
 1/14=-1,18=20,19=15,26=4,38=1/1,3;
 2/9=110,12=2,17=4,18=5,40=1/2;
 3/5=7,8=2,11=2,16=1,25=1,30=1,70=32201,71=1,72=1,74=-55,75=-5/1,2,3;
 4//1;
 5/5=2,32=2,38=5,53=1/2;
 6/7=2,8=2,9=2,10=2,28=1/1;
 7//1,2,3,16;
 1/14=-1,18=20,19=15,26=4/3(2);
 2/9=110,17=4/2;
 99//99;
 2/9=110,17=4/2;
 3/5=7,6=1,8=2,11=2,16=1,25=1,30=1,70=32205,71=1,72=1,74=-55,75=-5,82=7/1,2,3;
 4/5=5,16=3,69=1/1;
 5/5=2,32=2,38=5,53=1/2;
 7//1,2,3,16;
 1/14=-1,18=20,19=15,26=4/3(-5);
 2/9=110,17=4/2;
 6/7=2,8=2,9=2,10=2,19=2,28=1/1;
 99/9=1/99;
 ------------------------------------
 4SsulfCF3_a1.M062X_6-31pGd_opt_water
 ------------------------------------
 Symbolic Z-matrix:
 Charge = -1 Multiplicity = 1
 C                    -1.723     1.89918   0.26303 
 C                    -0.36913   1.20428   0.15186 
 C                     0.77591   2.22228   0.09215 
 N                     2.0595    1.55388  -0.03436 
 C                     3.22974   2.24836  -0.11536 
 O                     3.20435   3.4683   -0.0718 
 N                     4.40792   1.56634  -0.25894 
 C                     5.73592   2.10876  -0.37511 
 C                     6.0541    3.48504  -0.26367 
 C                     6.79096   1.20683  -0.61906 
 C                     8.10762   1.65133  -0.75667 
 C                     8.40405   3.01045  -0.64479 
 C                     7.37644   3.92326  -0.39753 
 H                    -2.52982   1.13734   0.30443 
 H                    -1.89532   2.55084  -0.62011 
 H                    -1.76708   2.51549   1.18604 
 H                    -0.36043   0.58212  -0.76964 
 H                    -0.22898   0.54054   1.03277 
 H                     0.76965   2.83702   1.01925 
 H                     0.62497   2.88898  -0.78564 
 H                     2.08497   0.52253  -0.07229 
 H                     5.32228   4.24832  -0.0725 
 H                     6.5919    0.14635  -0.71117 
 H                     8.89623   0.93568  -0.95093 
 S                     10.09459   3.58961  -0.83186 
 C                     10.62354   3.1368    0.85376 
 F                     10.7066   1.76217   0.97236 
 F                     11.87245   3.68041   1.08378 
 F                     9.74531   3.64571   1.79297 
 H                     7.60046   4.97925  -0.31062 
 

 GradGradGradGradGradGradGradGradGradGradGradGradGradGradGradGradGradGrad
 Berny optimization.
 Initialization pass.
                           ----------------------------
                           !    Initial Parameters    !
                           ! (Angstroms and Degrees)  !
 --------------------------                            --------------------------
 ! Name  Definition              Value          Derivative Info.                !
 --------------------------------------------------------------------------------
 ! R1    R(1,2)                  1.5258         estimate D2E/DX2                !
 ! R2    R(1,14)                 1.1104         estimate D2E/DX2                !
 ! R3    R(1,15)                 1.111          estimate D2E/DX2                !
 ! R4    R(1,16)                 1.1107         estimate D2E/DX2                !
 ! R5    R(2,3)                  1.5333         estimate D2E/DX2                !
 ! R6    R(2,17)                 1.1119         estimate D2E/DX2                !
 ! R7    R(2,18)                 1.1118         estimate D2E/DX2                !
 ! R8    R(3,4)                  1.4527         estimate D2E/DX2                !
 ! R9    R(3,19)                 1.1124         estimate D2E/DX2                !
 ! R10   R(3,20)                 1.1126         estimate D2E/DX2                !
 ! R11   R(4,5)                  1.3632         estimate D2E/DX2                !
 ! R12   R(4,21)                 1.0324         estimate D2E/DX2                !
 ! R13   R(5,6)                  1.221          estimate D2E/DX2                !
 ! R14   R(5,7)                  1.3689         estimate D2E/DX2                !
 ! R15   R(7,8)                  1.4392         estimate D2E/DX2                !
 ! R16   R(8,9)                  1.417          estimate D2E/DX2                !
 ! R17   R(8,10)                 1.4093         estimate D2E/DX2                !
 ! R18   R(9,13)                 1.3995         estimate D2E/DX2                !
 ! R19   R(9,22)                 1.0746         estimate D2E/DX2                !
 ! R20   R(10,11)                1.3965         estimate D2E/DX2                !
 ! R21   R(10,23)                1.0829         estimate D2E/DX2                !
 ! R22   R(11,12)                1.3956         estimate D2E/DX2                !
 ! R23   R(11,24)                1.0825         estimate D2E/DX2                !
 ! R24   R(12,13)                1.3965         estimate D2E/DX2                !
 ! R25   R(12,25)                1.7968         estimate D2E/DX2                !
 ! R26   R(13,30)                1.083          estimate D2E/DX2                !
 ! R27   R(25,26)                1.8238         estimate D2E/DX2                !
 ! R28   R(26,27)                1.3822         estimate D2E/DX2                !
 ! R29   R(26,28)                1.3814         estimate D2E/DX2                !
 ! R30   R(26,29)                1.3829         estimate D2E/DX2                !
 ! A1    A(2,1,14)             109.5696         estimate D2E/DX2                !
 ! A2    A(2,1,15)             110.2941         estimate D2E/DX2                !
 ! A3    A(2,1,16)             110.3928         estimate D2E/DX2                !
 ! A4    A(14,1,15)            108.6244         estimate D2E/DX2                !
 ! A5    A(14,1,16)            108.7151         estimate D2E/DX2                !
 ! A6    A(15,1,16)            109.205          estimate D2E/DX2                !
 ! A7    A(1,2,3)              111.2897         estimate D2E/DX2                !
 ! A8    A(1,2,17)             108.7932         estimate D2E/DX2                !
 ! A9    A(1,2,18)             109.0257         estimate D2E/DX2                !
 ! A10   A(3,2,17)             109.4742         estimate D2E/DX2                !
 ! A11   A(3,2,18)             109.4551         estimate D2E/DX2                !
 ! A12   A(17,2,18)            108.76           estimate D2E/DX2                !
 ! A13   A(2,3,4)              110.9626         estimate D2E/DX2                !
 ! A14   A(2,3,19)             109.2835         estimate D2E/DX2                !
 ! A15   A(2,3,20)             109.103          estimate D2E/DX2                !
 ! A16   A(4,3,19)             109.3789         estimate D2E/DX2                !
 ! A17   A(4,3,20)             109.0798         estimate D2E/DX2                !
 ! A18   A(19,3,20)            109.0037         estimate D2E/DX2                !
 ! A19   A(3,4,5)              121.9572         estimate D2E/DX2                !
 ! A20   A(3,4,21)             118.9898         estimate D2E/DX2                !
 ! A21   A(5,4,21)             119.0508         estimate D2E/DX2                !
 ! A22   A(4,5,6)              119.2776         estimate D2E/DX2                !
 ! A23   A(4,5,7)              119.4235         estimate D2E/DX2                !
 ! A24   A(6,5,7)              121.2948         estimate D2E/DX2                !
 ! A25   A(5,7,8)              127.9424         estimate D2E/DX2                !
 ! A26   A(7,8,9)              124.5356         estimate D2E/DX2                !
 ! A27   A(7,8,10)             117.6168         estimate D2E/DX2                !
 ! A28   A(9,8,10)             117.8475         estimate D2E/DX2                !
 ! A29   A(8,9,13)             120.5832         estimate D2E/DX2                !
 ! A30   A(8,9,22)             123.4342         estimate D2E/DX2                !
 ! A31   A(13,9,22)            115.9822         estimate D2E/DX2                !
 ! A32   A(8,10,11)            121.2784         estimate D2E/DX2                !
 ! A33   A(8,10,23)            120.2541         estimate D2E/DX2                !
 ! A34   A(11,10,23)           118.466          estimate D2E/DX2                !
 ! A35   A(10,11,12)           120.1564         estimate D2E/DX2                !
 ! A36   A(10,11,24)           119.6123         estimate D2E/DX2                !
 ! A37   A(12,11,24)           120.2313         estimate D2E/DX2                !
 ! A38   A(11,12,13)           119.6335         estimate D2E/DX2                !
 ! A39   A(11,12,25)           120.3595         estimate D2E/DX2                !
 ! A40   A(13,12,25)           120.0047         estimate D2E/DX2                !
 ! A41   A(9,13,12)            120.4995         estimate D2E/DX2                !
 ! A42   A(9,13,30)            119.5447         estimate D2E/DX2                !
 ! A43   A(12,13,30)           119.9556         estimate D2E/DX2                !
 ! A44   A(12,25,26)            95.5449         estimate D2E/DX2                !
 ! A45   A(25,26,27)           110.0993         estimate D2E/DX2                !
 ! A46   A(25,26,28)           108.5671         estimate D2E/DX2                !
 ! A47   A(25,26,29)           110.6194         estimate D2E/DX2                !
 ! A48   A(27,26,28)           108.8291         estimate D2E/DX2                !
 ! A49   A(27,26,29)           110.2347         estimate D2E/DX2                !
 ! A50   A(28,26,29)           108.4367         estimate D2E/DX2                !
 ! D1    D(14,1,2,3)          -179.9848         estimate D2E/DX2                !
 ! D2    D(14,1,2,17)           59.3145         estimate D2E/DX2                !
 ! D3    D(14,1,2,18)          -59.155          estimate D2E/DX2                !
 ! D4    D(15,1,2,3)            60.4885         estimate D2E/DX2                !
 ! D5    D(15,1,2,17)          -60.2123         estimate D2E/DX2                !
 ! D6    D(15,1,2,18)         -178.6817         estimate D2E/DX2                !
 ! D7    D(16,1,2,3)           -60.2849         estimate D2E/DX2                !
 ! D8    D(16,1,2,17)          179.0144         estimate D2E/DX2                !
 ! D9    D(16,1,2,18)           60.5449         estimate D2E/DX2                !
 ! D10   D(1,2,3,4)           -179.1194         estimate D2E/DX2                !
 ! D11   D(1,2,3,19)            60.1839         estimate D2E/DX2                !
 ! D12   D(1,2,3,20)           -58.9114         estimate D2E/DX2                !
 ! D13   D(17,2,3,4)           -58.8198         estimate D2E/DX2                !
 ! D14   D(17,2,3,19)         -179.5164         estimate D2E/DX2                !
 ! D15   D(17,2,3,20)           61.3882         estimate D2E/DX2                !
 ! D16   D(18,2,3,4)            60.3031         estimate D2E/DX2                !
 ! D17   D(18,2,3,19)          -60.3935         estimate D2E/DX2                !
 ! D18   D(18,2,3,20)         -179.4889         estimate D2E/DX2                !
 ! D19   D(2,3,4,5)            179.5762         estimate D2E/DX2                !
 ! D20   D(2,3,4,21)             0.1202         estimate D2E/DX2                !
 ! D21   D(19,3,4,5)           -59.7836         estimate D2E/DX2                !
 ! D22   D(19,3,4,21)          120.7604         estimate D2E/DX2                !
 ! D23   D(20,3,4,5)            59.3544         estimate D2E/DX2                !
 ! D24   D(20,3,4,21)         -120.1016         estimate D2E/DX2                !
 ! D25   D(3,4,5,6)              0.4972         estimate D2E/DX2                !
 ! D26   D(3,4,5,7)           -178.7719         estimate D2E/DX2                !
 ! D27   D(21,4,5,6)           179.9528         estimate D2E/DX2                !
 ! D28   D(21,4,5,7)             0.6838         estimate D2E/DX2                !
 ! D29   D(4,5,7,8)            179.3365         estimate D2E/DX2                !
 ! D30   D(6,5,7,8)              0.0826         estimate D2E/DX2                !
 ! D31   D(5,7,8,9)              4.6838         estimate D2E/DX2                !
 ! D32   D(5,7,8,10)          -175.1935         estimate D2E/DX2                !
 ! D33   D(7,8,9,13)          -179.6814         estimate D2E/DX2                !
 ! D34   D(7,8,9,22)             0.5322         estimate D2E/DX2                !
 ! D35   D(10,8,9,13)            0.1956         estimate D2E/DX2                !
 ! D36   D(10,8,9,22)         -179.5907         estimate D2E/DX2                !
 ! D37   D(7,8,10,11)          179.4412         estimate D2E/DX2                !
 ! D38   D(7,8,10,23)           -0.1141         estimate D2E/DX2                !
 ! D39   D(9,8,10,11)           -0.4445         estimate D2E/DX2                !
 ! D40   D(9,8,10,23)         -179.9998         estimate D2E/DX2                !
 ! D41   D(8,9,13,12)            0.0732         estimate D2E/DX2                !
 ! D42   D(8,9,13,30)          179.9171         estimate D2E/DX2                !
 ! D43   D(22,9,13,12)         179.8749         estimate D2E/DX2                !
 ! D44   D(22,9,13,30)          -0.2812         estimate D2E/DX2                !
 ! D45   D(8,10,11,12)           0.4245         estimate D2E/DX2                !
 ! D46   D(8,10,11,24)        -179.5499         estimate D2E/DX2                !
 ! D47   D(23,10,11,12)        179.9876         estimate D2E/DX2                !
 ! D48   D(23,10,11,24)          0.0132         estimate D2E/DX2                !
 ! D49   D(10,11,12,13)         -0.143          estimate D2E/DX2                !
 ! D50   D(10,11,12,25)       -179.5877         estimate D2E/DX2                !
 ! D51   D(24,11,12,13)        179.8313         estimate D2E/DX2                !
 ! D52   D(24,11,12,25)          0.3866         estimate D2E/DX2                !
 ! D53   D(11,12,13,9)          -0.1026         estimate D2E/DX2                !
 ! D54   D(11,12,13,30)       -179.9459         estimate D2E/DX2                !
 ! D55   D(25,12,13,9)         179.3441         estimate D2E/DX2                !
 ! D56   D(25,12,13,30)         -0.4992         estimate D2E/DX2                !
 ! D57   D(11,12,25,26)        -79.6068         estimate D2E/DX2                !
 ! D58   D(13,12,25,26)        100.9505         estimate D2E/DX2                !
 ! D59   D(12,25,26,27)         70.8799         estimate D2E/DX2                !
 ! D60   D(12,25,26,28)       -170.0773         estimate D2E/DX2                !
 ! D61   D(12,25,26,29)        -51.2061         estimate D2E/DX2                !
 --------------------------------------------------------------------------------
 Trust Radius=3.00D-01 FncErr=1.00D-07 GrdErr=1.00D-06
 Number of steps in this run=    151 maximum allowed number of steps=    180.
 GradGradGradGradGradGradGradGradGradGradGradGradGradGradGradGradGradGrad

                          Input orientation:                          
 ---------------------------------------------------------------------
 Center     Atomic      Atomic             Coordinates (Angstroms)
 Number     Number       Type             X           Y           Z
 ---------------------------------------------------------------------
      1          6           0       -1.723000    1.899180    0.263030
      2          6           0       -0.369130    1.204280    0.151860
      3          6           0        0.775910    2.222280    0.092150
      4          7           0        2.059500    1.553880   -0.034360
      5          6           0        3.229740    2.248360   -0.115360
      6          8           0        3.204350    3.468300   -0.071800
      7          7           0        4.407920    1.566340   -0.258940
      8          6           0        5.735920    2.108760   -0.375110
      9          6           0        6.054100    3.485040   -0.263670
     10          6           0        6.790960    1.206830   -0.619060
     11          6           0        8.107620    1.651330   -0.756670
     12          6           0        8.404050    3.010450   -0.644790
     13          6           0        7.376440    3.923260   -0.397530
     14          1           0       -2.529820    1.137340    0.304430
     15          1           0       -1.895320    2.550840   -0.620110
     16          1           0       -1.767080    2.515490    1.186040
     17          1           0       -0.360430    0.582120   -0.769640
     18          1           0       -0.228980    0.540540    1.032770
     19          1           0        0.769650    2.837020    1.019250
     20          1           0        0.624970    2.888980   -0.785640
     21          1           0        2.084970    0.522530   -0.072290
     22          1           0        5.322280    4.248320   -0.072500
     23          1           0        6.591900    0.146350   -0.711170
     24          1           0        8.896230    0.935680   -0.950930
     25         16           0       10.094590    3.589610   -0.831860
     26          6           0       10.623540    3.136800    0.853760
     27          9           0       10.706600    1.762170    0.972360
     28          9           0       11.872450    3.680410    1.083780
     29          9           0        9.745310    3.645710    1.792970
     30          1           0        7.600460    4.979250   -0.310620
 ---------------------------------------------------------------------
                    Distance matrix (angstroms):
                    1          2          3          4          5
     1  C    0.000000
     2  C    1.525847   0.000000
     3  C    2.525499   1.533299   0.000000
     4  N    3.809853   2.460720   1.452710   0.000000
     5  C    4.979432   3.756777   2.462727   1.363204   0.000000
     6  O    5.181991   4.236221   2.734368   2.230939   1.220981
     7  N    6.162095   4.808331   3.707427   2.359167   1.368895
     8  C    7.489101   6.194144   4.983264   3.733640   2.523469
     9  C    7.954599   6.828793   5.438792   4.442836   3.086808
    10  C    8.587488   7.201473   6.141481   4.780066   3.744434
    11  C    9.886471   8.537012   7.402733   6.091879   4.955950
    12  C   10.228206   8.992530   7.704078   6.538160   5.256858
    13  C    9.345215   8.227304   6.833748   5.832298   4.481075
    14  H    1.110438   2.167104   3.485686   4.620621   5.880741
    15  H    1.110987   2.176791   2.784014   4.120392   5.158731
    16  H    1.110733   2.177858   2.783768   4.129986   5.170417
    17  H    2.158159   1.111900   2.173494   2.709431   4.011703
    18  H    2.161134   1.111843   2.173205   2.720802   4.024624
    19  H    2.768522   2.171411   1.112411   2.102440   2.772346
    20  H    2.755427   2.169183   1.112559   2.098759   2.764868
    21  H    4.063033   2.556880   2.151704   1.032361   2.071435
    22  H    7.434178   6.458225   4.980103   4.231689   2.894892
    23  H    8.553306   7.093657   6.227403   4.793940   4.009683
    24  H   10.731732   9.334623   8.287518   6.925543   5.876259
    25  S   11.987984  10.777149   9.463677   8.327237   7.031251
    26  C   12.422468  11.183295   9.919285   8.754266   7.509780
    27  F   12.450577  11.120083   9.980234   8.707997   7.571192
    28  F   13.736181  12.524216  11.235776  10.102789   8.842236
    29  F   11.700992  10.533552   9.239539   8.172305   6.931592
    30  H    9.835792   8.830552   7.371404   6.520101   5.157430
                    6          7          8          9         10
     6  O    0.000000
     7  N    2.258551   0.000000
     8  C    2.889497   1.439201   0.000000
     9  C    2.856251   2.528110   1.416970   0.000000
    10  C    4.275221   2.436763   1.409290   2.420642   0.000000
    11  C    5.273754   3.733998   2.445361   2.796871   1.396464
    12  C    5.251174   4.266543   2.829256   2.427499   2.419869
    13  C    4.209445   3.792940   2.446266   1.399478   2.787625
    14  H    6.201260   6.973784   8.350323   8.917293   9.366675
    15  H    5.210471   6.389876   7.647959   8.012057   8.789643
    16  H    5.215853   6.412447   7.674479   8.013273   8.843700
    17  H    4.639469   4.895576   6.296965   7.058976   7.180203
    18  H    4.645386   4.921547   6.326253   7.058890   7.242378
    19  H    2.741654   4.060222   5.209457   5.476425   6.449632
    20  H    2.738317   4.041967   5.186433   5.486638   6.393497
    21  H    3.151281   2.553522   3.992150   4.956519   4.786812
    22  H    2.257002   2.839689   2.200088   1.074571   3.421463
    23  H    4.787446   2.643984   2.167185   3.411207   1.082925
    24  H    6.291624   4.584922   3.419831   3.879338   2.148446
    25  S    6.933096   6.063009   4.625964   4.081585   4.078835
    26  C    7.484045   6.506795   5.143522   4.716959   4.536811
    27  F    7.764335   6.420889   5.161730   5.112906   4.263010
    28  F    8.747360   7.873462   6.500419   5.975532   5.902525
    29  F    6.803896   6.084558   4.810197   4.228548   4.527053
    30  H    4.654652   4.673643   3.423504   2.150836   3.870604
                   11         12         13         14         15
    11  C    0.000000
    12  C    1.395563   0.000000
    13  C    2.413560   1.396546   0.000000
    14  H   10.702581  11.133691  10.314460   0.000000
    15  H   10.044231  10.309650   9.375426   1.804258   0.000000
    16  H   10.101019  10.346439   9.385812   1.805078   1.811042
    17  H    8.535294   9.095520   8.435688   2.483576   2.500821
    18  H    8.598538   9.134762   8.445766   2.486064   3.090309
    19  H    7.642353   7.815572   6.843746   3.779733   3.141889
    20  H    7.584370   7.781303   6.841251   3.769509   2.548254
    21  H    6.165621   6.815297   6.298444   4.670781   4.500762
    22  H    3.869181   3.370036   2.104966   8.454333   7.434720
    23  H    2.136456   3.389891   3.870261   9.231429   8.821721
    24  H    1.082496   2.154213   3.397300  11.496574  10.916764
    25  S    2.776803   1.796760   2.772779  12.910481  12.036687
    26  C    3.336159   2.680998   3.567619  13.315798  12.618934
    27  F    3.123544   3.078167   4.199628  13.267982  12.726600
    28  F    4.656003   3.932760   4.739975  14.645818  13.918716
    29  F    3.627705   2.853981   3.238344  12.616913  11.938424
    30  H    3.395766   2.152580   1.082983  10.851780   9.806263
                   16         17         18         19         20
    16  H    0.000000
    17  H    3.088894   0.000000
    18  H    2.507922   1.807675   0.000000
    19  H    2.562460   3.092213   2.504249   0.000000
    20  H    3.122326   2.508560   3.090472   1.811425   0.000000
    21  H    4.515924   2.543586   2.564341   2.877219   2.870636
    22  H    7.405785   6.798545   6.766516   4.889798   4.941770
    23  H    8.892962   6.966219   7.051320   6.643241   6.567482
    24  H   10.989478   9.265183   9.346692   8.575430   8.500379
    25  S   12.079937  10.879169  10.924732   9.536640   9.495616
    26  C   12.410637  11.393393  11.160188   9.859838  10.135110
    27  F   12.498234  11.265267  11.003769   9.995023  10.295607
    28  F   13.689568  12.754525  12.502240  11.134974  11.429213
    29  F   11.583647  10.866395  10.474084   9.045170   9.508021
    30  H    9.801067   9.106109   9.099834   7.281323   7.297420
                   21         22         23         24         25
    21  H    0.000000
    22  H    4.935756   0.000000
    23  H    4.567504   4.341197   0.000000
    24  H    6.880114   4.951600   2.447542   0.000000
    25  S    8.610339   4.877035   4.913191   2.914376   0.000000
    26  C    8.977703   5.495161   5.257939   3.329480   1.823771
    27  F    8.772714   6.021925   4.730317   2.767593   2.639944
    28  F   10.349081   6.675645   6.602699   4.531167   2.615092
    29  F    8.480227   4.838007   5.334813   3.948948   2.648561
    30  H    7.095054   2.404384   4.953237   4.294121   2.902322
                   26         27         28         29         30
    26  C    0.000000
    27  F    1.382235   0.000000
    28  F    1.381375   2.247502   0.000000
    29  F    1.382893   2.268304   2.242516   0.000000
    30  H    3.726851   4.652284   4.677738   3.286914   0.000000
 Stoichiometry    C11H12F3N2OS(1-)
 Framework group  C1[X(C11H12F3N2OS)]
 Deg. of freedom    84
 Full point group                 C1      NOp   1
 Largest Abelian subgroup         C1      NOp   1
 Largest concise Abelian subgroup C1      NOp   1
                         Standard orientation:                         
 ---------------------------------------------------------------------
 Center     Atomic      Atomic             Coordinates (Angstroms)
 Number     Number       Type             X           Y           Z
 ---------------------------------------------------------------------
      1          6           0        7.878458   -0.394661    0.405471
      2          6           0        6.628096    0.479842    0.398558
      3          6           0        5.365482   -0.355978    0.157279
      4          7           0        4.181916    0.485969    0.131519
      5          6           0        2.936105   -0.026770   -0.076756
      6          8           0        2.804882   -1.229906   -0.238123
      7          7           0        1.859316    0.817541   -0.115981
      8          6           0        0.477547    0.479864   -0.335040
      9          6           0       -0.016315   -0.842438   -0.459223
     10          6           0       -0.446019    1.539636   -0.435074
     11          6           0       -1.803421    1.299742   -0.658733
     12          6           0       -2.273554   -0.008697   -0.779381
     13          6           0       -1.378669   -1.076069   -0.678190
     14          1           0        8.773803    0.237926    0.582286
     15          1           0        7.994666   -0.908574   -0.572629
     16          1           0        7.814406   -1.155176    1.212466
     17          1           0        6.727919    1.241207   -0.405606
     18          1           0        6.545387    1.001732    1.376814
     19          1           0        5.264004   -1.110695    0.968182
     20          1           0        5.458412   -0.882685   -0.818288
     21          1           0        4.288919    1.503818    0.266811
     22          1           0        0.606117   -1.715744   -0.391276
     23          1           0       -0.110992    2.565575   -0.346010
     24          1           0       -2.488107    2.134411   -0.738293
     25         16           0       -4.017145   -0.323249   -1.078203
     26          6           0       -4.537775   -0.089520    0.653980
     27          9           0       -4.449243    1.245629    1.000552
     28          9           0       -5.852331   -0.495792    0.776799
     29          9           0       -3.761737   -0.856654    1.503487
     30          1           0       -1.737705   -2.093501   -0.771882
 ---------------------------------------------------------------------
 Rotational constants (GHZ):      1.4494580      0.1043128      0.1033819
 General basis read from cards:  (6D, 7F)
 There are   370 symmetry adapted cartesian basis functions of A   symmetry.
 There are   370 symmetry adapted basis functions of A   symmetry.
   370 basis functions,   648 primitive gaussians,   370 cartesian basis functions
    72 alpha electrons       72 beta electrons
       nuclear repulsion energy      1377.2713438186 Hartrees.
 NAtoms=   30 NActive=   30 NUniq=   30 SFac= 1.00D+00 NAtFMM=   60 NAOKFM=F Big=F
 Integral buffers will be    131072 words long.
 Raffenetti 2 integral format.
 Two-electron integral symmetry is turned on.
 ------------------------------------------------------------------------------
 Polarizable Continuum Model (PCM)
 =================================
 Model                : PCM (using non-symmetric T matrix).
 Atomic radii         : SMD-Coulomb.
 Polarization charges : Total charges.
 Charge compensation  : None.
 Solution method      : On-the-fly selection.
 Cavity type          : VdW (van der Waals Surface) (Alpha=1.000).
 Cavity algorithm     : GePol (No added spheres)
                        Default sphere list used, NSphG=   30.
                        Lebedev-Laikov grids with approx.  5.0 points / Ang**2.
                        Smoothing algorithm: York/Karplus (Gamma=1.0000).
                        Polarization charges: spherical gaussians, with
                                              point-specific exponents (IZeta= 3).
                        Self-potential: point-specific (ISelfS= 7).
                        Self-field    : sphere-specific E.n sum rule (ISelfD= 2).
 1st derivatives      : Analytical E(r).r(x)/FMM algorithm (CHGder, D1EAlg=3).
                        Cavity 1st derivative terms included.
 Solvent              : Water, Eps=  78.355300 Eps(inf)=   1.777849
 ------------------------------------------------------------------------------
 ------------------------------------------------------------------------------
 Atomic radii for non-electrostatic terms: SMD-CDS.
 ------------------------------------------------------------------------------
 Nuclear repulsion after PCM non-electrostatic terms =     1377.2801945181 Hartrees.
 One-electron integrals computed using PRISM.
 NBasis=   370 RedAO= T EigKep=  1.78D-06  NBF=   370
 NBsUse=   370 1.00D-06 EigRej= -1.00D+00 NBFU=   370
 ExpMin= 4.05D-02 ExpMax= 2.19D+04 ExpMxC= 3.30D+03 IAcc=3 IRadAn=         5 AccDes= 0.00D+00
 Harris functional with IExCor= 1009 and IRadAn=       5 diagonalized for initial guess.
 HarFok:  IExCor= 1009 AccDes= 0.00D+00 IRadAn=         5 IDoV= 1 UseB2=F ITyADJ=14
 ICtDFT=  3500011 ScaDFX=  1.000000  1.000000  1.000000  1.000000
 FoFCou: FMM=F IPFlag=           0 FMFlag=      100000 FMFlg1=           0
         NFxFlg=           0 DoJE=T BraDBF=F KetDBF=T FulRan=T
         wScrn=  0.000000 ICntrl=     500 IOpCl=  0 I1Cent=   200000004 NGrid=           0
         NMat0=    1 NMatS0=      1 NMatT0=    0 NMatD0=    1 NMtDS0=    0 NMtDT0=    0
 Petite list used in FoFCou.
 Requested convergence on RMS density matrix=1.00D-08 within 128 cycles.
 Requested convergence on MAX density matrix=1.00D-06.
 Requested convergence on             energy=1.00D-06.
 No special actions if energy rises.
 Inv3:  Mode=1 IEnd=    17554683.
 Iteration    1 A*A^-1 deviation from unit magnitude is 5.66D-15 for   2411.
 Iteration    1 A*A^-1 deviation from orthogonality  is 2.68D-15 for   1087     93.
 Iteration    1 A^-1*A deviation from unit magnitude is 5.33D-15 for   2411.
 Iteration    1 A^-1*A deviation from orthogonality  is 9.11D-12 for   1853   1840.
 Error on total polarization charges =  0.05654
 SCF Done:  E(RM062X) =  -1308.62550923     A.U. after   16 cycles
            NFock= 16  Conv=0.55D-08     -V/T= 2.0070
 SMD-CDS (non-electrostatic) energy       (kcal/mol) =       5.55
 (included in total energy above)

 **********************************************************************

            Population analysis using the SCF density.

 **********************************************************************

 Orbital symmetries:
       Occupied  (A) (A) (A) (A) (A) (A) (A) (A) (A) (A) (A) (A)
                 (A) (A) (A) (A) (A) (A) (A) (A) (A) (A) (A) (A)
                 (A) (A) (A) (A) (A) (A) (A) (A) (A) (A) (A) (A)
                 (A) (A) (A) (A) (A) (A) (A) (A) (A) (A) (A) (A)
                 (A) (A) (A) (A) (A) (A) (A) (A) (A) (A) (A) (A)
                 (A) (A) (A) (A) (A) (A) (A) (A) (A) (A) (A) (A)
       Virtual   (A) (A) (A) (A) (A) (A) (A) (A) (A) (A) (A) (A)
                 (A) (A) (A) (A) (A) (A) (A) (A) (A) (A) (A) (A)
                 (A) (A) (A) (A) (A) (A) (A) (A) (A) (A) (A) (A)
                 (A) (A) (A) (A) (A) (A) (A) (A) (A) (A) (A) (A)
                 (A) (A) (A) (A) (A) (A) (A) (A) (A) (A) (A) (A)
                 (A) (A) (A) (A) (A) (A) (A) (A) (A) (A) (A) (A)
                 (A) (A) (A) (A) (A) (A) (A) (A) (A) (A) (A) (A)
                 (A) (A) (A) (A) (A) (A) (A) (A) (A) (A) (A) (A)
                 (A) (A) (A) (A) (A) (A) (A) (A) (A) (A) (A) (A)
                 (A) (A) (A) (A) (A) (A) (A) (A) (A) (A) (A) (A)
                 (A) (A) (A) (A) (A) (A) (A) (A) (A) (A) (A) (A)
                 (A) (A) (A) (A) (A) (A) (A) (A) (A) (A) (A) (A)
                 (A) (A) (A) (A) (A) (A) (A) (A) (A) (A) (A) (A)
                 (A) (A) (A) (A) (A) (A) (A) (A) (A) (A) (A) (A)
                 (A) (A) (A) (A) (A) (A) (A) (A) (A) (A) (A) (A)
                 (A) (A) (A) (A) (A) (A) (A) (A) (A) (A) (A) (A)
                 (A) (A) (A) (A) (A) (A) (A) (A) (A) (A) (A) (A)
                 (A) (A) (A) (A) (A) (A) (A) (A) (A) (A) (A) (A)
                 (A) (A) (A) (A) (A) (A) (A) (A) (A) (A) (A) (A)
                 (A) (A) (A) (A) (A) (A) (A) (A) (A) (A) (A) (A)
                 (A) (A) (A) (A) (A) (A) (A) (A) (A) (A) (A) (A)
                 (A) (A) (A) (A) (A) (A) (A) (A) (A) (A) (A) (A)
                 (A) (A) (A) (A) (A) (A) (A) (A) (A) (A) (A) (A)
                 (A) (A) (A) (A) (A) (A) (A) (A) (A) (A) (A) (A)
                 (A) (A) (A) (A) (A) (A) (A) (A) (A) (A)
 The electronic state is 1-A.
 Alpha  occ. eigenvalues --  -89.95411 -25.31797 -25.31594 -25.31589 -19.58608
 Alpha  occ. eigenvalues --  -14.76075 -14.70282 -10.84158 -10.64365 -10.58966
 Alpha  occ. eigenvalues --  -10.57946 -10.57135 -10.55844 -10.55710 -10.54377
 Alpha  occ. eigenvalues --  -10.54144 -10.53893 -10.53230  -8.29809  -6.21899
 Alpha  occ. eigenvalues --   -6.21632  -6.21186  -1.45453  -1.37822  -1.37762
 Alpha  occ. eigenvalues --   -1.15473  -1.00688  -0.97683  -0.93772  -0.89320
 Alpha  occ. eigenvalues --   -0.86673  -0.84055  -0.82155  -0.77536  -0.75133
 Alpha  occ. eigenvalues --   -0.69303  -0.69259  -0.69008  -0.67600  -0.66560
 Alpha  occ. eigenvalues --   -0.63589  -0.63246  -0.58512  -0.57724  -0.57634
 Alpha  occ. eigenvalues --   -0.54691  -0.54539  -0.54318  -0.53711  -0.52663
 Alpha  occ. eigenvalues --   -0.52440  -0.51660  -0.50892  -0.49446  -0.48499
 Alpha  occ. eigenvalues --   -0.47821  -0.45989  -0.45310  -0.44598  -0.42864
 Alpha  occ. eigenvalues --   -0.41253  -0.40659  -0.40484  -0.38930  -0.38732
 Alpha  occ. eigenvalues --   -0.34744  -0.34317  -0.32261  -0.30794  -0.30340
 Alpha  occ. eigenvalues --   -0.27663  -0.23147
 Alpha virt. eigenvalues --    0.00642   0.01781   0.01963   0.02566   0.03035
 Alpha virt. eigenvalues --    0.03905   0.03980   0.04336   0.04831   0.04971
 Alpha virt. eigenvalues --    0.05274   0.06016   0.06548   0.07205   0.07396
 Alpha virt. eigenvalues --    0.07647   0.07796   0.08508   0.08894   0.09547
 Alpha virt. eigenvalues --    0.09919   0.10224   0.10560   0.11201   0.11628
 Alpha virt. eigenvalues --    0.12062   0.12389   0.13040   0.13498   0.14055
 Alpha virt. eigenvalues --    0.14526   0.15141   0.15680   0.15787   0.16435
 Alpha virt. eigenvalues --    0.16614   0.17163   0.17621   0.18078   0.18287
 Alpha virt. eigenvalues --    0.19012   0.19670   0.20125   0.20401   0.21011
 Alpha virt. eigenvalues --    0.21487   0.21676   0.22007   0.22255   0.22970
 Alpha virt. eigenvalues --    0.23500   0.24064   0.24347   0.24470   0.24626
 Alpha virt. eigenvalues --    0.25463   0.25709   0.26210   0.26450   0.26996
 Alpha virt. eigenvalues --    0.27040   0.27568   0.28165   0.28883   0.29361
 Alpha virt. eigenvalues --    0.29676   0.30444   0.30531   0.31270   0.31356
 Alpha virt. eigenvalues --    0.31968   0.32543   0.32939   0.33214   0.33471
 Alpha virt. eigenvalues --    0.33729   0.34204   0.34807   0.35509   0.35803
 Alpha virt. eigenvalues --    0.36146   0.36946   0.37124   0.37818   0.38121
 Alpha virt. eigenvalues --    0.38794   0.39410   0.39998   0.40088   0.40394
 Alpha virt. eigenvalues --    0.41374   0.41678   0.43255   0.44334   0.44846
 Alpha virt. eigenvalues --    0.45951   0.46925   0.48212   0.49060   0.50216
 Alpha virt. eigenvalues --    0.51680   0.53383   0.54525   0.56191   0.58084
 Alpha virt. eigenvalues --    0.58803   0.62406   0.65849   0.66380   0.69420
 Alpha virt. eigenvalues --    0.70393   0.70513   0.71697   0.73056   0.74059
 Alpha virt. eigenvalues --    0.75183   0.75851   0.76284   0.77000   0.77534
 Alpha virt. eigenvalues --    0.78433   0.79936   0.80210   0.82090   0.83719
 Alpha virt. eigenvalues --    0.84320   0.85077   0.85502   0.86972   0.88531
 Alpha virt. eigenvalues --    0.89190   0.90073   0.90188   0.93296   0.94043
 Alpha virt. eigenvalues --    0.95851   0.98186   0.98934   0.99029   0.99696
 Alpha virt. eigenvalues --    1.01009   1.01151   1.01410   1.02851   1.03835
 Alpha virt. eigenvalues --    1.05054   1.05647   1.06753   1.07415   1.08379
 Alpha virt. eigenvalues --    1.11149   1.12871   1.12971   1.13329   1.14150
 Alpha virt. eigenvalues --    1.15454   1.15695   1.16144   1.18384   1.19253
 Alpha virt. eigenvalues --    1.22778   1.23404   1.25395   1.25499   1.28988
 Alpha virt. eigenvalues --    1.30761   1.31308   1.32355   1.33306   1.34909
 Alpha virt. eigenvalues --    1.36625   1.37805   1.40158   1.40741   1.41354
 Alpha virt. eigenvalues --    1.42914   1.44246   1.45129   1.47773   1.48185
 Alpha virt. eigenvalues --    1.49356   1.50188   1.53016   1.53250   1.54859
 Alpha virt. eigenvalues --    1.56442   1.57208   1.58701   1.60464   1.61628
 Alpha virt. eigenvalues --    1.62596   1.65360   1.67696   1.68848   1.70943
 Alpha virt. eigenvalues --    1.71262   1.73116   1.73574   1.75348   1.75534
 Alpha virt. eigenvalues --    1.79505   1.80936   1.85757   1.86288   1.86793
 Alpha virt. eigenvalues --    1.88190   1.88462   1.88562   1.89553   1.89866
 Alpha virt. eigenvalues --    1.90340   1.90658   1.91234   1.92741   1.93918
 Alpha virt. eigenvalues --    1.95923   1.98584   1.98866   1.99797   2.01184
 Alpha virt. eigenvalues --    2.01492   2.02186   2.04249   2.04439   2.05362
 Alpha virt. eigenvalues --    2.05486   2.06323   2.07681   2.08513   2.08948
 Alpha virt. eigenvalues --    2.11737   2.14558   2.15669   2.17705   2.19013
 Alpha virt. eigenvalues --    2.20887   2.21689   2.22162   2.22729   2.26551
 Alpha virt. eigenvalues --    2.27232   2.28688   2.29471   2.30270   2.31210
 Alpha virt. eigenvalues --    2.32342   2.34510   2.35371   2.37983   2.40626
 Alpha virt. eigenvalues --    2.41413   2.42598   2.45151   2.53484   2.60123
 Alpha virt. eigenvalues --    2.60236   2.62937   2.67108   2.67683   2.68713
 Alpha virt. eigenvalues --    2.69450   2.71543   2.73526   2.76073   2.77670
 Alpha virt. eigenvalues --    2.79520   2.81012   2.81110   2.82112   2.84631
 Alpha virt. eigenvalues --    2.92980   3.01240   3.08755   3.12767   3.15308
 Alpha virt. eigenvalues --    3.16530   3.24274   3.29366   3.34950   3.42837
 Alpha virt. eigenvalues --    4.02333   4.17705   4.27117   4.30109   4.33805
 Alpha virt. eigenvalues --    4.41136   4.42939   4.43570   4.45769   4.50407
 Alpha virt. eigenvalues --    4.51660   4.54676   4.60064   4.66793   4.79011
 Alpha virt. eigenvalues --    5.56392   5.67244   6.27275
          Condensed to atoms (all electrons):
               1          2          3          4          5          6
     1  C    5.668505  -0.106400   0.093547  -0.007371  -0.072753  -0.004985
     2  C   -0.106400   6.253522  -0.562304  -0.070619   0.214989   0.024080
     3  C    0.093547  -0.562304   7.451470   0.303510  -0.698636  -0.114693
     4  N   -0.007371  -0.070619   0.303510   7.755577   0.477118  -0.251805
     5  C   -0.072753   0.214989  -0.698636   0.477118   7.074782   0.399618
     6  O   -0.004985   0.024080  -0.114693  -0.251805   0.399618   8.811968
     7  N   -0.005259   0.014453  -0.145357  -0.351540   0.334183  -0.127578
     8  C   -0.012868   0.025139  -0.587062  -0.205426  -1.206411  -0.168183
     9  C    0.001950  -0.000685   0.154102   0.101015   1.693278   0.179857
    10  C   -0.003751   0.015353  -0.232483  -0.134053  -1.757570  -0.133988
    11  C    0.000078  -0.000759   0.006293  -0.003008   0.104099   0.015262
    12  C   -0.000201   0.001476  -0.031720  -0.008630  -0.499289   0.001329
    13  C   -0.000741   0.003851  -0.076815  -0.032283  -0.736019   0.192397
    14  H    0.413978  -0.089030   0.027673   0.000429  -0.002314   0.000006
    15  H    0.419073  -0.066468  -0.007668   0.000339  -0.001082  -0.000052
    16  H    0.415894  -0.064496  -0.007144   0.000347  -0.000450  -0.000052
    17  H   -0.035231   0.424325  -0.070198   0.005848  -0.009069  -0.000220
    18  H   -0.033040   0.422607  -0.069418   0.005741  -0.009998  -0.000172
    19  H    0.000431  -0.036969   0.417883  -0.056162  -0.019910   0.003003
    20  H    0.005247  -0.046752   0.440270  -0.060012  -0.033475   0.003650
    21  H   -0.004522   0.004191  -0.087430   0.244495   0.031858   0.010972
    22  H   -0.000010   0.000113   0.002076  -0.000226  -0.005134  -0.004349
    23  H   -0.000001   0.000036  -0.000954  -0.000280  -0.019920   0.000123
    24  H    0.000000   0.000000   0.000027   0.000011   0.003854  -0.000002
    25  S   -0.000007   0.000046  -0.002273  -0.000897  -0.082930   0.000693
    26  C    0.000001  -0.000006   0.000250   0.000088   0.013214  -0.000026
    27  F   -0.000000  -0.000000  -0.000002   0.000000  -0.000384   0.000000
    28  F    0.000000  -0.000000  -0.000000   0.000000  -0.000004   0.000000
    29  F   -0.000000   0.000000  -0.000011  -0.000003  -0.001900  -0.000004
    30  H   -0.000000   0.000001  -0.000045  -0.000014  -0.001884   0.000312
               7          8          9         10         11         12
     1  C   -0.005259  -0.012868   0.001950  -0.003751   0.000078  -0.000201
     2  C    0.014453   0.025139  -0.000685   0.015353  -0.000759   0.001476
     3  C   -0.145357  -0.587062   0.154102  -0.232483   0.006293  -0.031720
     4  N   -0.351540  -0.205426   0.101015  -0.134053  -0.003008  -0.008630
     5  C    0.334183  -1.206411   1.693278  -1.757570   0.104099  -0.499289
     6  O   -0.127578  -0.168183   0.179857  -0.133988   0.015262   0.001329
     7  N    7.849591   0.531599  -0.259055  -0.142844   0.092529  -0.049202
     8  C    0.531599   9.977310  -0.068296  -0.854147   0.858254  -1.358541
     9  C   -0.259055  -0.068296  15.688479  -2.761124  -0.794515  -0.795493
    10  C   -0.142844  -0.854147  -2.761124  13.787801  -2.818708   2.316754
    11  C    0.092529   0.858254  -0.794515  -2.818708   9.954051  -1.896617
    12  C   -0.049202  -1.358541  -0.795493   2.316754  -1.896617   8.951374
    13  C   -0.056784  -0.687473  -6.923469  -0.960778   0.489142  -0.186133
    14  H    0.000006  -0.000044   0.000004  -0.000002  -0.000000  -0.000000
    15  H    0.000016  -0.000008  -0.000032   0.000000   0.000000  -0.000000
    16  H    0.000008   0.000010  -0.000044   0.000003   0.000000  -0.000000
    17  H   -0.000290  -0.000428  -0.000351   0.000151   0.000002  -0.000001
    18  H    0.000029  -0.000938   0.000001   0.000028   0.000001  -0.000001
    19  H   -0.001325  -0.001601   0.000528   0.000095   0.000001  -0.000002
    20  H   -0.000408  -0.005511   0.003162  -0.001167  -0.000041  -0.000014
    21  H    0.028151   0.019672  -0.003092   0.004516  -0.000221   0.000071
    22  H   -0.005124  -0.035366   0.315625   0.029818  -0.017856   0.039335
    23  H    0.001765  -0.094663   0.028637   0.476526  -0.113415   0.068903
    24  H    0.000597   0.054104  -0.021524  -0.108157   0.367766  -0.018774
    25  S   -0.005788  -0.266892  -0.977897   0.246274  -0.060126  -0.315171
    26  C    0.001283   0.080848   0.170770  -0.029432   0.045425  -0.129138
    27  F    0.000014  -0.009757   0.013576   0.014789   0.062621  -0.025838
    28  F    0.000004  -0.002242   0.005260   0.001818  -0.002122   0.019498
    29  F   -0.000076  -0.025592  -0.055646   0.035895  -0.127363   0.097572
    30  H   -0.000980   0.026714  -0.043641  -0.030445   0.046733  -0.005699
              13         14         15         16         17         18
     1  C   -0.000741   0.413978   0.419073   0.415894  -0.035231  -0.033040
     2  C    0.003851  -0.089030  -0.066468  -0.064496   0.424325   0.422607
     3  C   -0.076815   0.027673  -0.007668  -0.007144  -0.070198  -0.069418
     4  N   -0.032283   0.000429   0.000339   0.000347   0.005848   0.005741
     5  C   -0.736019  -0.002314  -0.001082  -0.000450  -0.009069  -0.009998
     6  O    0.192397   0.000006  -0.000052  -0.000052  -0.000220  -0.000172
     7  N   -0.056784   0.000006   0.000016   0.000008  -0.000290   0.000029
     8  C   -0.687473  -0.000044  -0.000008   0.000010  -0.000428  -0.000938
     9  C   -6.923469   0.000004  -0.000032  -0.000044  -0.000351   0.000001
    10  C   -0.960778  -0.000002   0.000000   0.000003   0.000151   0.000028
    11  C    0.489142  -0.000000   0.000000   0.000000   0.000002   0.000001
    12  C   -0.186133  -0.000000  -0.000000  -0.000000  -0.000001  -0.000001
    13  C   14.561444   0.000000  -0.000003  -0.000004  -0.000035  -0.000001
    14  H    0.000000   0.484519  -0.024111  -0.024020  -0.003009  -0.002989
    15  H   -0.000003  -0.024111   0.488830  -0.028476  -0.004626   0.003804
    16  H   -0.000004  -0.024020  -0.028476   0.488808   0.003825  -0.004546
    17  H   -0.000035  -0.003009  -0.004626   0.003825   0.494948  -0.031047
    18  H   -0.000001  -0.002989   0.003804  -0.004546  -0.031047   0.494404
    19  H    0.000313  -0.000063  -0.000307   0.002630   0.003836  -0.005716
    20  H    0.000583  -0.000053   0.002693  -0.000342  -0.005557   0.003852
    21  H    0.000803  -0.000003  -0.000000  -0.000000   0.000464   0.000468
    22  H   -0.018943  -0.000000  -0.000000   0.000000  -0.000000  -0.000000
    23  H   -0.038276  -0.000000  -0.000000  -0.000000  -0.000000  -0.000000
    24  H    0.040382  -0.000000   0.000000   0.000000   0.000000   0.000000
    25  S    0.569664  -0.000000  -0.000000  -0.000000  -0.000000  -0.000000
    26  C   -0.025134   0.000000   0.000000   0.000000   0.000000   0.000000
    27  F   -0.057510   0.000000   0.000000  -0.000000  -0.000000   0.000000
    28  F   -0.007143   0.000000   0.000000  -0.000000   0.000000  -0.000000
    29  F    0.077192   0.000000   0.000000  -0.000000  -0.000000   0.000000
    30  H    0.330632  -0.000000   0.000000   0.000000   0.000000   0.000000
              19         20         21         22         23         24
     1  C    0.000431   0.005247  -0.004522  -0.000010  -0.000001   0.000000
     2  C   -0.036969  -0.046752   0.004191   0.000113   0.000036   0.000000
     3  C    0.417883   0.440270  -0.087430   0.002076  -0.000954   0.000027
     4  N   -0.056162  -0.060012   0.244495  -0.000226  -0.000280   0.000011
     5  C   -0.019910  -0.033475   0.031858  -0.005134  -0.019920   0.003854
     6  O    0.003003   0.003650   0.010972  -0.004349   0.000123  -0.000002
     7  N   -0.001325  -0.000408   0.028151  -0.005124   0.001765   0.000597
     8  C   -0.001601  -0.005511   0.019672  -0.035366  -0.094663   0.054104
     9  C    0.000528   0.003162  -0.003092   0.315625   0.028637  -0.021524
    10  C    0.000095  -0.001167   0.004516   0.029818   0.476526  -0.108157
    11  C    0.000001  -0.000041  -0.000221  -0.017856  -0.113415   0.367766
    12  C   -0.000002  -0.000014   0.000071   0.039335   0.068903  -0.018774
    13  C    0.000313   0.000583   0.000803  -0.018943  -0.038276   0.040382
    14  H   -0.000063  -0.000053  -0.000003  -0.000000  -0.000000  -0.000000
    15  H   -0.000307   0.002693  -0.000000  -0.000000  -0.000000   0.000000
    16  H    0.002630  -0.000342  -0.000000   0.000000  -0.000000   0.000000
    17  H    0.003836  -0.005557   0.000464  -0.000000  -0.000000   0.000000
    18  H   -0.005716   0.003852   0.000468  -0.000000  -0.000000   0.000000
    19  H    0.515671  -0.042356   0.002161  -0.000000  -0.000000   0.000000
    20  H   -0.042356   0.516525   0.002146   0.000000   0.000000  -0.000000
    21  H    0.002161   0.002146   0.280185   0.000001   0.000002  -0.000000
    22  H   -0.000000   0.000000   0.000001   0.448194  -0.000106   0.000011
    23  H   -0.000000   0.000000   0.000002  -0.000106   0.457897  -0.003754
    24  H    0.000000  -0.000000  -0.000000   0.000011  -0.003754   0.446306
    25  S    0.000000  -0.000000   0.000004   0.000340  -0.001623  -0.009803
    26  C    0.000000   0.000000  -0.000000  -0.000369   0.000169  -0.003587
    27  F    0.000000  -0.000000  -0.000000  -0.000000   0.000015   0.000146
    28  F    0.000000  -0.000000  -0.000000  -0.000000  -0.000001  -0.000093
    29  F    0.000000  -0.000000  -0.000000  -0.000005  -0.000014   0.000100
    30  H   -0.000000  -0.000000   0.000000  -0.004450   0.000012  -0.000130
              25         26         27         28         29         30
     1  C   -0.000007   0.000001  -0.000000   0.000000  -0.000000  -0.000000
     2  C    0.000046  -0.000006  -0.000000  -0.000000   0.000000   0.000001
     3  C   -0.002273   0.000250  -0.000002  -0.000000  -0.000011  -0.000045
     4  N   -0.000897   0.000088   0.000000   0.000000  -0.000003  -0.000014
     5  C   -0.082930   0.013214  -0.000384  -0.000004  -0.001900  -0.001884
     6  O    0.000693  -0.000026   0.000000   0.000000  -0.000004   0.000312
     7  N   -0.005788   0.001283   0.000014   0.000004  -0.000076  -0.000980
     8  C   -0.266892   0.080848  -0.009757  -0.002242  -0.025592   0.026714
     9  C   -0.977897   0.170770   0.013576   0.005260  -0.055646  -0.043641
    10  C    0.246274  -0.029432   0.014789   0.001818   0.035895  -0.030445
    11  C   -0.060126   0.045425   0.062621  -0.002122  -0.127363   0.046733
    12  C   -0.315171  -0.129138  -0.025838   0.019498   0.097572  -0.005699
    13  C    0.569664  -0.025134  -0.057510  -0.007143   0.077192   0.330632
    14  H   -0.000000   0.000000   0.000000   0.000000   0.000000  -0.000000
    15  H   -0.000000   0.000000   0.000000   0.000000   0.000000   0.000000
    16  H   -0.000000   0.000000  -0.000000  -0.000000  -0.000000   0.000000
    17  H   -0.000000   0.000000  -0.000000   0.000000  -0.000000   0.000000
    18  H   -0.000000   0.000000   0.000000  -0.000000   0.000000   0.000000
    19  H    0.000000   0.000000   0.000000   0.000000   0.000000  -0.000000
    20  H   -0.000000   0.000000  -0.000000  -0.000000  -0.000000  -0.000000
    21  H    0.000004  -0.000000  -0.000000  -0.000000  -0.000000   0.000000
    22  H    0.000340  -0.000369  -0.000000  -0.000000  -0.000005  -0.004450
    23  H   -0.001623   0.000169   0.000015  -0.000001  -0.000014   0.000012
    24  H   -0.009803  -0.003587   0.000146  -0.000093   0.000100  -0.000130
    25  S   16.582752   0.110133  -0.071598  -0.088634  -0.062419  -0.016109
    26  C    0.110133   4.765586   0.136430   0.153675   0.139785   0.001486
    27  F   -0.071598   0.136430   9.302043  -0.033611  -0.045111  -0.000007
    28  F   -0.088634   0.153675  -0.033611   9.282880  -0.030256  -0.000038
    29  F   -0.062419   0.139785  -0.045111  -0.030256   9.271935  -0.000865
    30  H   -0.016109   0.001486  -0.000007  -0.000038  -0.000865   0.447410
 Mulliken charges:
               1
     1  C   -0.731564
     2  C   -0.359694
     3  C   -0.202889
     4  N   -0.712187
     5  C    0.812140
     6  O   -0.837163
     7  N   -0.702618
     8  C    0.017800
     9  C    0.348619
    10  C   -0.961172
    11  C   -0.207503
    12  C   -0.175848
    13  C   -0.458859
    14  H    0.219026
    15  H    0.218078
    16  H    0.218048
    17  H    0.226662
    18  H    0.226931
    19  H    0.217859
    20  H    0.217559
    21  H    0.465110
    22  H    0.256424
    23  H    0.238924
    24  H    0.252520
    25  S    0.452261
    26  C    0.568549
    27  F   -0.285816
    28  F   -0.298990
    29  F   -0.273214
    30  H    0.251007
 Sum of Mulliken charges =  -1.00000
 Mulliken charges with hydrogens summed into heavy atoms:
               1
     1  C   -0.076413
     2  C    0.093900
     3  C    0.232529
     4  N   -0.247077
     5  C    0.812140
     6  O   -0.837163
     7  N   -0.702618
     8  C    0.017800
     9  C    0.605043
    10  C   -0.722248
    11  C    0.045017
    12  C   -0.175848
    13  C   -0.207851
    25  S    0.452261
    26  C    0.568549
    27  F   -0.285816
    28  F   -0.298990
    29  F   -0.273214
 Electronic spatial extent (au):  <R**2>=           9899.9494
 Charge=             -1.0000 electrons
 Dipole moment (field-independent basis, Debye):
    X=             -1.7317    Y=              1.7450    Z=              0.5265  Tot=              2.5142
 Quadrupole moment (field-independent basis, Debye-Ang):
   XX=           -135.9266   YY=           -119.2840   ZZ=           -119.9438
   XY=              7.9240   XZ=              6.8170   YZ=             -0.1035
 Traceless Quadrupole moment (field-independent basis, Debye-Ang):
   XX=            -10.8751   YY=              5.7675   ZZ=              5.1077
   XY=              7.9240   XZ=              6.8170   YZ=             -0.1035
 Octapole moment (field-independent basis, Debye-Ang**2):
  XXX=             97.2299  YYY=              5.6276  ZZZ=             29.1048  XYY=            -44.0354
  XXY=             46.7171  XXZ=             10.1751  XZZ=            -20.2510  YZZ=             -4.0271
  YYZ=              7.6528  XYZ=             -1.0963
 Hexadecapole moment (field-independent basis, Debye-Ang**3):
 XXXX=         -11663.9140 YYYY=           -613.4040 ZZZZ=           -468.4458 XXXY=            197.7373
 XXXZ=             25.3484 YYYX=             30.6077 YYYZ=             -4.1849 ZZZX=           -100.7205
 ZZZY=              2.3725 XXYY=          -2108.7205 XXZZ=          -2049.9494 YYZZ=           -192.3498
 XXYZ=              4.8311 YYXZ=            -14.8077 ZZXY=             -4.0312
 N-N= 1.377280194518D+03 E-N=-5.852990993314D+03  KE= 1.299538602126D+03
 D1PCM: PCM CHGder 1st derivatives, ID1Alg=3 FixD1E=F DoIter=F DoCFld=F I1PDM=0.
 Calling FoFJK, ICntrl=      2127 FMM=F ISym2X=0 I1Cent= 0 IOpClX= 0 NMat=1 NMatS=1 NMatT=0.
 ***** Axes restored to original set *****
 -------------------------------------------------------------------
 Center     Atomic                   Forces (Hartrees/Bohr)
 Number     Number              X              Y              Z
 -------------------------------------------------------------------
      1        6          -0.005287610    0.000994688    0.000302349
      2        6           0.004089757   -0.003802168   -0.000377042
      3        6          -0.002707165    0.002565236   -0.000262058
      4        7           0.001107124   -0.030170896   -0.000233677
      5        6           0.053559381   -0.031913221   -0.007003951
      6        8          -0.020227089    0.071701812    0.004452964
      7        7           0.019357184   -0.027282758   -0.003406783
      8        6          -0.064947648    0.001360967    0.007372271
      9        6           0.020170531    0.004764883   -0.002124172
     10        6           0.011899189    0.003193224   -0.000858897
     11        6          -0.010913522   -0.003453796   -0.000049916
     12        6           0.006384554    0.004725308   -0.003602208
     13        6          -0.005545082   -0.006947963   -0.000365707
     14        1           0.005705318    0.009197042   -0.000111403
     15        1          -0.000159203   -0.004871674    0.009082157
     16        1          -0.001467839   -0.004500059   -0.008978465
     17        1           0.002076634    0.003466724    0.009134621
     18        1           0.000501747    0.003897335   -0.009132041
     19        1          -0.001312372   -0.002720698   -0.009534773
     20        1           0.000060140   -0.002978040    0.009605051
     21        1          -0.000071977    0.017183641    0.000456157
     22        1          -0.007540299   -0.001824068    0.000570617
     23        1          -0.003130812   -0.001693935    0.000247472
     24        1           0.001921650   -0.002062203   -0.000842002
     25       16          -0.004735700   -0.003730585    0.010608617
     26        6           0.002954027    0.006365977   -0.003693282
     27        9          -0.000920040    0.038263971    0.012646584
     28        9          -0.032043793   -0.019308342    0.001908767
     29        9           0.030624308   -0.023155142   -0.016390490
     30        1           0.000598608    0.002734740    0.000579241
 -------------------------------------------------------------------
 Cartesian Forces:  Max     0.071701812 RMS     0.015938909

 GradGradGradGradGradGradGradGradGradGradGradGradGradGradGradGradGradGrad
 Berny optimization.
 FormGI is forming the generalized inverse of G from B-inverse, IUseBI=4.
 Internal  Forces:  Max     0.072219899 RMS     0.011949294
 Search for a local minimum.
 Step number   1 out of a maximum of  151
 All quantities printed in internal units (Hartrees-Bohrs-Radians)
 Mixed Optimization -- RFO/linear search
 Second derivative matrix not updated -- first step.
 ITU=  0
     Eigenvalues ---    0.00230   0.00325   0.00413   0.00424   0.00995
     Eigenvalues ---    0.01173   0.01469   0.01770   0.01828   0.01944
     Eigenvalues ---    0.01977   0.02049   0.02084   0.02103   0.02115
     Eigenvalues ---    0.02137   0.02142   0.02153   0.02179   0.03749
     Eigenvalues ---    0.04438   0.04931   0.05552   0.05672   0.05785
     Eigenvalues ---    0.08042   0.09172   0.11982   0.12664   0.15140
     Eigenvalues ---    0.15610   0.16000   0.16000   0.16000   0.16000
     Eigenvalues ---    0.16000   0.16000   0.16000   0.16000   0.21964
     Eigenvalues ---    0.22000   0.22000   0.22003   0.22965   0.24000
     Eigenvalues ---    0.24330   0.24999   0.24999   0.25000   0.25000
     Eigenvalues ---    0.25000   0.25000   0.25000   0.25000   0.25000
     Eigenvalues ---    0.26374   0.29121   0.29810   0.32331   0.32346
     Eigenvalues ---    0.32400   0.32406   0.32496   0.32523   0.32554
     Eigenvalues ---    0.35636   0.35643   0.35694   0.36658   0.37892
     Eigenvalues ---    0.39695   0.40676   0.41279   0.42423   0.44212
     Eigenvalues ---    0.45327   0.45938   0.46263   0.48577   0.48696
     Eigenvalues ---    0.48852   0.51189   0.52305   0.94950
 RFO step:  Lambda=-4.54497985D-02 EMin= 2.30000000D-03
 Linear search not attempted -- first point.
 Maximum step size (   0.300) exceeded in Quadratic search.
    -- Step size scaled by   0.867
 Iteration  1 RMS(Cart)=  0.07365688 RMS(Int)=  0.00168167
 Iteration  2 RMS(Cart)=  0.00251835 RMS(Int)=  0.00023274
 Iteration  3 RMS(Cart)=  0.00000491 RMS(Int)=  0.00023271
 Iteration  4 RMS(Cart)=  0.00000000 RMS(Int)=  0.00023271
 Variable       Old X    -DE/DX   Delta X   Delta X   Delta X     New X
                                 (Linear)    (Quad)   (Total)
    R1        2.88343   0.00145   0.00000   0.00367   0.00367   2.88710
    R2        2.09842  -0.01046   0.00000  -0.02443  -0.02443   2.07399
    R3        2.09946  -0.01005   0.00000  -0.02353  -0.02353   2.07593
    R4        2.09898  -0.00991   0.00000  -0.02317  -0.02317   2.07581
    R5        2.89752  -0.00697   0.00000  -0.01794  -0.01794   2.87958
    R6        2.10119  -0.00948   0.00000  -0.02226  -0.02226   2.07893
    R7        2.10108  -0.00950   0.00000  -0.02229  -0.02229   2.07879
    R8        2.74522  -0.00081   0.00000  -0.00164  -0.00164   2.74358
    R9        2.10215  -0.00945   0.00000  -0.02220  -0.02220   2.07996
   R10        2.10243  -0.00937   0.00000  -0.02203  -0.02203   2.08040
   R11        2.57608   0.00382   0.00000   0.00583   0.00583   2.58191
   R12        1.95088  -0.01718   0.00000  -0.03172  -0.03172   1.91916
   R13        2.30732   0.07222   0.00000   0.06293   0.06293   2.37025
   R14        2.58684  -0.01721   0.00000  -0.02676  -0.02676   2.56008
   R15        2.71970  -0.05172   0.00000  -0.10135  -0.10135   2.61835
   R16        2.67769   0.00091   0.00000   0.00161   0.00162   2.67930
   R17        2.66317   0.00186   0.00000   0.00323   0.00324   2.66641
   R18        2.64463  -0.00534   0.00000  -0.00917  -0.00917   2.63546
   R19        2.03064   0.00395   0.00000   0.00830   0.00830   2.03895
   R20        2.63893  -0.00783   0.00000  -0.01340  -0.01340   2.62553
   R21        2.04643   0.00221   0.00000   0.00476   0.00476   2.05119
   R22        2.63723   0.00318   0.00000   0.00547   0.00546   2.64270
   R23        2.04562   0.00291   0.00000   0.00627   0.00627   2.05189
   R24        2.63909   0.00018   0.00000   0.00039   0.00038   2.63947
   R25        3.39538  -0.00492   0.00000  -0.01379  -0.01379   3.38160
   R26        2.04654   0.00284   0.00000   0.00613   0.00613   2.05267
   R27        3.44643  -0.00545   0.00000  -0.01635  -0.01635   3.43007
   R28        2.61204  -0.03702   0.00000  -0.06028  -0.06028   2.55176
   R29        2.61042  -0.03625   0.00000  -0.05885  -0.05885   2.55157
   R30        2.61329  -0.03910   0.00000  -0.06380  -0.06380   2.54949
    A1        1.91235   0.00332   0.00000   0.01489   0.01481   1.92716
    A2        1.92499   0.00206   0.00000   0.00835   0.00830   1.93330
    A3        1.92672   0.00197   0.00000   0.00779   0.00775   1.93447
    A4        1.89585  -0.00242   0.00000  -0.00919  -0.00927   1.88658
    A5        1.89744  -0.00249   0.00000  -0.00982  -0.00989   1.88755
    A6        1.90599  -0.00260   0.00000  -0.01264  -0.01266   1.89333
    A7        1.94237  -0.00076   0.00000  -0.00031  -0.00031   1.94207
    A8        1.89880   0.00172   0.00000   0.01094   0.01094   1.90973
    A9        1.90286   0.00140   0.00000   0.00892   0.00892   1.91178
   A10        1.91068  -0.00054   0.00000  -0.00429  -0.00431   1.90637
   A11        1.91035  -0.00034   0.00000  -0.00351  -0.00353   1.90682
   A12        1.89822  -0.00148   0.00000  -0.01196  -0.01203   1.88619
   A13        1.93666  -0.00357   0.00000  -0.00926  -0.00924   1.92743
   A14        1.90736   0.00095   0.00000   0.00187   0.00189   1.90925
   A15        1.90421   0.00099   0.00000   0.00302   0.00305   1.90725
   A16        1.90902   0.00186   0.00000   0.00861   0.00861   1.91763
   A17        1.90380   0.00222   0.00000   0.01158   0.01159   1.91539
   A18        1.90247  -0.00246   0.00000  -0.01608  -0.01610   1.88638
   A19        2.12855   0.00055   0.00000   0.00181   0.00181   2.13036
   A20        2.07676   0.00008   0.00000   0.00062   0.00062   2.07738
   A21        2.07783  -0.00064   0.00000  -0.00242  -0.00242   2.07541
   A22        2.08179  -0.00427   0.00000  -0.01250  -0.01251   2.06928
   A23        2.08433  -0.03489   0.00000  -0.10236  -0.10236   1.98197
   A24        2.11699   0.03917   0.00000   0.11494   0.11494   2.23193
   A25        2.23302  -0.03510   0.00000  -0.10300  -0.10300   2.13001
   A26        2.17356   0.01128   0.00000   0.03333   0.03332   2.20688
   A27        2.05280  -0.00874   0.00000  -0.02542  -0.02543   2.02737
   A28        2.05683  -0.00254   0.00000  -0.00790  -0.00789   2.04894
   A29        2.10457   0.00118   0.00000   0.00359   0.00359   2.10817
   A30        2.15433  -0.00739   0.00000  -0.03050  -0.03051   2.12383
   A31        2.02427   0.00621   0.00000   0.02691   0.02691   2.05118
   A32        2.11671   0.00226   0.00000   0.00695   0.00695   2.12366
   A33        2.09883  -0.00399   0.00000  -0.01555  -0.01556   2.08328
   A34        2.06762   0.00173   0.00000   0.00861   0.00860   2.07623
   A35        2.09713  -0.00025   0.00000  -0.00100  -0.00101   2.09612
   A36        2.08763  -0.00010   0.00000  -0.00046  -0.00046   2.08717
   A37        2.09843   0.00036   0.00000   0.00147   0.00147   2.09990
   A38        2.08800  -0.00124   0.00000  -0.00362  -0.00363   2.08437
   A39        2.10067   0.00152   0.00000   0.00443   0.00443   2.10510
   A40        2.09448  -0.00028   0.00000  -0.00085  -0.00085   2.09363
   A41        2.10311   0.00060   0.00000   0.00197   0.00197   2.10508
   A42        2.08645  -0.00035   0.00000  -0.00117  -0.00117   2.08528
   A43        2.09362  -0.00026   0.00000  -0.00080  -0.00080   2.09282
   A44        1.66757   0.01564   0.00000   0.04590   0.04590   1.71347
   A45        1.92160   0.02098   0.00000   0.06043   0.05925   1.98084
   A46        1.89485   0.01052   0.00000   0.03216   0.03104   1.92590
   A47        1.93067   0.01870   0.00000   0.05467   0.05347   1.98414
   A48        1.89943  -0.01513   0.00000  -0.04405  -0.04504   1.85439
   A49        1.92396  -0.02327   0.00000  -0.07070  -0.07185   1.85211
   A50        1.89258  -0.01238   0.00000  -0.03407  -0.03510   1.85748
    D1       -3.14133   0.00003   0.00000   0.00048   0.00049  -3.14084
    D2        1.03523   0.00005   0.00000  -0.00116  -0.00115   1.03408
    D3       -1.03245   0.00005   0.00000   0.00180   0.00180  -1.03065
    D4        1.05572  -0.00035   0.00000  -0.00268  -0.00270   1.05302
    D5       -1.05090  -0.00032   0.00000  -0.00433  -0.00434  -1.05524
    D6       -3.11858  -0.00033   0.00000  -0.00137  -0.00139  -3.11998
    D7       -1.05217   0.00028   0.00000   0.00259   0.00261  -1.04956
    D8        3.12439   0.00030   0.00000   0.00095   0.00097   3.12536
    D9        1.05671   0.00029   0.00000   0.00391   0.00392   1.06063
   D10       -3.12622  -0.00029   0.00000  -0.00285  -0.00285  -3.12907
   D11        1.05041  -0.00096   0.00000  -0.00892  -0.00892   1.04149
   D12       -1.02820   0.00087   0.00000   0.00768   0.00769  -1.02051
   D13       -1.02660   0.00101   0.00000   0.00778   0.00777  -1.01883
   D14       -3.13315   0.00034   0.00000   0.00171   0.00170  -3.13146
   D15        1.07143   0.00217   0.00000   0.01832   0.01830   1.08973
   D16        1.05249  -0.00133   0.00000  -0.01148  -0.01146   1.04102
   D17       -1.05407  -0.00200   0.00000  -0.01755  -0.01754  -1.07160
   D18       -3.13267  -0.00016   0.00000  -0.00095  -0.00093  -3.13360
   D19        3.13420   0.00008   0.00000   0.00081   0.00081   3.13501
   D20        0.00210   0.00007   0.00000   0.00065   0.00065   0.00275
   D21       -1.04342   0.00021   0.00000   0.00289   0.00287  -1.04055
   D22        2.10767   0.00020   0.00000   0.00273   0.00271   2.11038
   D23        1.03593  -0.00036   0.00000  -0.00463  -0.00461   1.03131
   D24       -2.09617  -0.00037   0.00000  -0.00479  -0.00478  -2.10094
   D25        0.00868   0.00019   0.00000   0.00184   0.00173   0.01041
   D26       -3.12016  -0.00057   0.00000  -0.00677  -0.00667  -3.12682
   D27        3.14077   0.00020   0.00000   0.00201   0.00191  -3.14051
   D28        0.01193  -0.00055   0.00000  -0.00660  -0.00649   0.00544
   D29        3.13001   0.00080   0.00000   0.01148   0.01167  -3.14151
   D30        0.00144   0.00037   0.00000   0.00369   0.00350   0.00494
   D31        0.08175   0.00003   0.00000   0.00020   0.00021   0.08196
   D32       -3.05770  -0.00028   0.00000  -0.00411  -0.00412  -3.06182
   D33       -3.13603  -0.00052   0.00000  -0.00701  -0.00707   3.14009
   D34        0.00929  -0.00038   0.00000  -0.00518  -0.00525   0.00404
   D35        0.00341  -0.00021   0.00000  -0.00271  -0.00271   0.00071
   D36       -3.13445  -0.00008   0.00000  -0.00087  -0.00089  -3.13534
   D37        3.13184   0.00037   0.00000   0.00495   0.00486   3.13671
   D38       -0.00199   0.00035   0.00000   0.00483   0.00477   0.00278
   D39       -0.00776   0.00006   0.00000   0.00088   0.00089  -0.00687
   D40       -3.14159   0.00005   0.00000   0.00076   0.00079  -3.14080
   D41        0.00128   0.00000   0.00000   0.00000  -0.00001   0.00127
   D42        3.14015   0.00029   0.00000   0.00372   0.00373  -3.13931
   D43        3.13941  -0.00015   0.00000  -0.00182  -0.00187   3.13754
   D44       -0.00491   0.00014   0.00000   0.00190   0.00187  -0.00304
   D45        0.00741   0.00028   0.00000   0.00363   0.00362   0.01103
   D46       -3.13374   0.00014   0.00000   0.00173   0.00173  -3.13200
   D47        3.14138   0.00027   0.00000   0.00365   0.00362  -3.13819
   D48        0.00023   0.00013   0.00000   0.00174   0.00173   0.00196
   D49       -0.00250  -0.00048   0.00000  -0.00630  -0.00629  -0.00879
   D50       -3.13440  -0.00014   0.00000  -0.00179  -0.00178  -3.13617
   D51        3.13865  -0.00033   0.00000  -0.00438  -0.00439   3.13426
   D52        0.00675   0.00000   0.00000   0.00013   0.00013   0.00688
   D53       -0.00179   0.00034   0.00000   0.00452   0.00453   0.00274
   D54       -3.14065   0.00005   0.00000   0.00079   0.00077  -3.13988
   D55        3.13014   0.00002   0.00000   0.00005   0.00007   3.13022
   D56       -0.00871  -0.00027   0.00000  -0.00368  -0.00368  -0.01240
   D57       -1.38940  -0.00175   0.00000  -0.02998  -0.02999  -1.41939
   D58        1.76192  -0.00142   0.00000  -0.02544  -0.02543   1.73649
   D59        1.23709  -0.00210   0.00000  -0.02447  -0.02439   1.21269
   D60       -2.96841  -0.00181   0.00000  -0.02308  -0.02311  -2.99152
   D61       -0.89372   0.00059   0.00000  -0.01260  -0.01266  -0.90637
         Item               Value     Threshold  Converged?
 Maximum Force            0.072220     0.000450     NO 
 RMS     Force            0.011949     0.000300     NO 
 Maximum Displacement     0.242223     0.001800     NO 
 RMS     Displacement     0.074502     0.001200     NO 
 Predicted change in Energy=-2.446582D-02
 GradGradGradGradGradGradGradGradGradGradGradGradGradGradGradGradGradGrad

                          Input orientation:                          
 ---------------------------------------------------------------------
 Center     Atomic      Atomic             Coordinates (Angstroms)
 Number     Number       Type             X           Y           Z
 ---------------------------------------------------------------------
      1          6           0       -1.656024    1.862474    0.275326
      2          6           0       -0.282053    1.206845    0.146915
      3          6           0        0.825355    2.251675    0.083926
      4          7           0        2.120301    1.610031   -0.054810
      5          6           0        3.279712    2.327656   -0.141554
      6          8           0        3.215772    3.579152   -0.087811
      7          7           0        4.384343    1.556571   -0.284814
      8          6           0        5.653442    2.102652   -0.389639
      9          6           0        5.992431    3.474369   -0.272549
     10          6           0        6.703806    1.192935   -0.634746
     11          6           0        8.020414    1.616823   -0.765949
     12          6           0        8.335951    2.973617   -0.642577
     13          6           0        7.315956    3.895834   -0.397556
     14          1           0       -2.442316    1.098109    0.320248
     15          1           0       -1.860070    2.511550   -0.587139
     16          1           0       -1.715722    2.468875    1.189305
     17          1           0       -0.253460    0.593153   -0.765682
     18          1           0       -0.108099    0.545405    1.008506
     19          1           0        0.805822    2.860623    1.000586
     20          1           0        0.647168    2.918921   -0.773402
     21          1           0        2.165980    0.596349   -0.096771
     22          1           0        5.245136    4.228386   -0.079753
     23          1           0        6.480206    0.135119   -0.730769
     24          1           0        8.801027    0.888314   -0.963202
     25         16           0       10.025828    3.535749   -0.817239
     26          6           0       10.602562    3.144313    0.858709
     27          9           0       10.694510    1.818995    1.100539
     28          9           0       11.837385    3.651776    1.060736
     29          9           0        9.818375    3.649383    1.833443
     30          1           0        7.551960    4.951793   -0.301929
 ---------------------------------------------------------------------
                    Distance matrix (angstroms):
                    1          2          3          4          5
     1  C    0.000000
     2  C    1.527788   0.000000
     3  C    2.518999   1.523807   0.000000
     4  N    3.799125   2.444290   1.451840   0.000000
     5  C    4.975105   3.745077   2.465863   1.366288   0.000000
     6  O    5.178151   4.232932   2.739669   2.253572   1.254280
     7  N    6.073991   4.699356   3.644932   2.276323   1.354734
     8  C    7.343580   6.026646   4.853545   3.582998   2.397242
     9  C    7.835639   6.684816   5.321722   4.303087   2.948043
    10  C    8.435833   7.029468   6.016112   4.638838   3.640776
    11  C    9.735402   8.362557   7.272839   5.942819   4.834191
    12  C   10.095383   8.832597   7.580110   6.390551   5.121899
    13  C    9.224085   8.078170   6.712896   5.686580   4.337739
    14  H    1.097510   2.169932   3.473361   4.606540   5.870831
    15  H    1.098535   2.175139   2.780175   4.115758   5.162337
    16  H    1.098473   2.175937   2.779588   4.123167   5.171604
    17  H    2.159180   1.100122   2.153223   2.678455   3.985140
    18  H    2.160624   1.100047   2.153495   2.688836   3.997039
    19  H    2.753723   2.155738   1.100666   2.098975   2.776449
    20  H    2.742372   2.154446   1.100899   2.097543   2.771121
    21  H    4.043420   2.534750   2.137763   1.015578   2.059084
    22  H    7.304083   6.303245   4.844444   4.076885   2.734864
    23  H    8.378199   6.902686   6.092690   4.651995   3.923971
    24  H   10.575106   9.156209   8.158834   6.780719   5.764697
    25  S   11.851549  10.611587   9.333255   8.172334   6.886662
    26  C   12.339221  11.078595   9.848394   8.668177   7.435832
    27  F   12.378149  11.034902   9.930808   8.654222   7.535301
    28  F   13.634169  12.397320  11.143574   9.991741   8.742572
    29  F   11.716766  10.527536   9.267622   8.184424   6.957133
    30  H    9.729547   8.694702   7.258563   6.382112   5.016365
                    6          7          8          9         10
     6  O    0.000000
     7  N    2.344184   0.000000
     8  C    2.865901   1.385571   0.000000
     9  C    2.784770   2.502808   1.417826   0.000000
    10  C    4.261403   2.373730   1.411002   2.417060   0.000000
    11  C    5.234041   3.668260   2.445443   2.794035   1.389371
    12  C    5.185622   4.213220   2.831680   2.424822   2.415530
    13  C    4.124043   3.752228   2.445304   1.394624   2.781483
    14  H    6.191611   6.868738   8.188672   8.783108   9.196334
    15  H    5.210880   6.324245   7.527222   7.917560   8.664929
    16  H    5.213767   6.341617   7.545314   7.909719   8.708825
    17  H    4.627232   4.761158   6.108313   6.896067   6.984299
    18  H    4.631809   4.783009   6.129861   6.887409   7.037161
    19  H    2.740210   4.019778   5.099673   5.375730   6.343635
    20  H    2.739282   4.007641   5.086880   5.397334   6.299295
    21  H    3.162160   2.424566   3.810133   4.791203   4.608383
    22  H    2.130701   2.814535   2.186661   1.078964   3.413165
    23  H    4.788662   2.571389   2.161271   3.405654   1.085445
    24  H    6.261149   4.518172   3.422117   3.879806   2.144531
    25  S    6.849147   6.002247   4.621078   4.070472   4.069141
    26  C    7.459869   6.518805   5.209339   4.758360   4.608533
    27  F    7.774436   6.465778   5.264357   5.170608   4.396463
    28  F    8.698083   7.858004   6.537930   5.997717   5.939208
    29  F    6.876810   6.196417   4.968011   4.370776   4.671898
    30  H    4.553297   4.643449   3.424860   2.148435   3.867705
                   11         12         13         14         15
    11  C    0.000000
    12  C    1.398454   0.000000
    13  C    2.413682   1.396750   0.000000
    14  H   10.531743  10.982514  10.176757   0.000000
    15  H    9.922523  10.206636   9.281790   1.777689   0.000000
    16  H    9.967013  10.229696   9.280384   1.778257   1.782810
    17  H    8.336959   8.914020   8.266757   2.495058   2.508649
    18  H    8.388644   8.940038   8.265529   2.495546   3.079158
    19  H    7.531136   7.708151   6.738568   3.757621   3.122451
    20  H    7.487340   7.690090   6.750433   3.749179   2.546937
    21  H    5.980264   6.634595   6.123668   4.654253   4.485258
    22  H    3.872117   3.382951   2.121293   8.309967   7.327272
[...]
 ,0.00000116,0.,0.00000005,0.00000057,-0.00000174,0.00000009,-0.0000027
 3,-0.00000012,0.00001819,-0.00000269,0.00000750,-0.00000280,-0.0000094
 3,0.00000655,-0.00010894,0.00025226,-0.00076054,-0.00112822,0.00155664
 ,-0.00410947,-0.08358115,0.08029933,0.07193575,0.00002167,0.00004103,-
 0.00002440,0.00002702,-0.00009091,0.00006957,-0.00030353,0.00029493,0.
 00013328,0.00160621,0.00005006,-0.00084888,-0.00433065,0.00392050,0.00
 098191,0.00034013,-0.00230172,0.00003277,0.00764673,0.00052355,-0.0022
 6147,-0.00622247,-0.00190923,0.00202201,0.00270093,0.00975282,0.002272
 56,0.00847459,-0.00547593,-0.00291109,-0.02814505,-0.01324875,0.003081
 59,-0.13504096,-0.03849702,0.02932677,-0.03902112,-0.01180025,0.006821
 87,0.00002539,-0.00000408,0.00000389,0.00000265,-0.00000077,0.00000140
 ,0.00000120,-0.00000438,0.,0.00000018,0.00000887,-0.00000209,-0.000002
 83,0.00000383,-0.00001065,0.00004092,-0.00002208,0.00000788,0.00015670
 ,-0.00003185,0.00008720,-0.00003233,-0.00009187,0.00011753,-0.00115433
 ,-0.00072424,-0.00018187,-0.00104707,0.00007431,0.00004713,0.00114756,
 0.00109390,-0.00035127,0.25096849,0.00000861,0.00001770,-0.00000900,0.
 00001239,-0.00003881,0.00002820,-0.00013362,0.00011980,0.00002677,0.00
 066508,0.00003055,-0.00038705,-0.00171859,0.00139172,0.00057862,0.0003
 0431,-0.00079274,0.00001508,0.00304791,0.00075150,-0.00053015,-0.00190
 622,-0.00314305,0.00007764,0.00358350,0.00245599,-0.00125767,0.0009278
 5,-0.00332817,-0.00409413,-0.02823294,-0.00746106,0.00605503,-0.032356
 63,-0.05221245,0.01011777,0.00555806,0.00717214,0.00041950,0.00001074,
 -0.00000177,0.00000161,0.00000109,-0.00000043,0.00000089,0.00000061,-0
 .00000187,-0.00000009,-0.00000021,0.00000378,-0.00000057,-0.00000077,0
 .00000147,-0.00000412,0.00002009,-0.00000931,0.00000493,0.00005738,-0.
 00001387,0.00003877,-0.00001781,-0.00003814,0.00005276,0.00041641,0.00
 018173,-0.00022963,-0.00114656,-0.00000020,-0.00014760,-0.00049255,0.0
 0030852,0.00144615,0.04611666,0.10480516,-0.00000688,-0.00001692,0.000
 00554,-0.00001355,0.00003789,-0.00002591,0.00012967,-0.00011088,0.0000
 0417,-0.00062166,-0.00001574,0.00041361,0.00135370,-0.00138561,-0.0004
 7620,0.00003115,0.00080492,0.00001328,-0.00294765,-0.00001589,0.000085
 66,0.00202641,0.00014017,-0.00133450,0.00120483,-0.00319709,0.00439762
 ,-0.00135674,-0.00195843,0.00447992,-0.00526080,0.00139533,0.00168159,
 0.01502486,0.00602670,-0.04351827,0.00875456,0.00353631,-0.00202180,-0
 .00000937,0.00000163,-0.00000157,-0.00000126,0.00000071,-0.00000074,-0
 .00000069,0.00000184,0.,-0.00000075,-0.00000409,0.00000002,0.00000113,
 0.00000001,0.00000318,-0.00001997,0.00000561,-0.00000593,-0.00004317,0
 .00001268,-0.00004384,0.00001197,0.00004714,-0.00004187,0.00018702,0.0
 0000197,0.00053669,-0.00028627,-0.00034229,0.00050985,-0.00085387,0.00
 082859,-0.00200494,0.01204744,-0.06283000,0.22674345,0.00000320,0.0000
 0634,-0.00000291,0.00000474,-0.00001236,0.00000908,-0.00003567,0.00003
 704,-0.00000534,0.00020332,0.00001923,-0.00006396,-0.00041958,0.000245
 44,-0.00000461,0.00027358,-0.00017323,0.00008774,0.00055310,-0.0000084
 5,-0.00021879,-0.00034515,0.00003780,-0.00019164,0.00011440,-0.0008400
 2,0.00119651,-0.00016710,0.00014357,0.00099414,0.00122636,0.00111494,-
 0.00070258,-0.02199721,0.00153356,-0.01510940,0.00043434,0.00004920,-0
 .00160104,0.00000424,-0.00000024,0.00000041,0.00000017,-0.00000045,0.0
 0000068,-0.00000023,-0.00000060,0.00000001,0.00000075,0.00000153,-0.00
 000043,-0.00000049,0.00000053,-0.00000057,0.00000423,-0.00000446,0.000
 00213,0.00001656,-0.00000362,0.00000970,-0.00000250,-0.00000976,0.0000
 1433,0.00017611,-0.00001715,0.00017038,0.00025228,0.00006352,0.0001229
 8,-0.00014419,-0.00025448,-0.00050115,-0.03884310,0.00153847,-0.012686
 50,0.49088693,-0.00000828,-0.00001572,0.00000788,-0.00001055,0.0000342
 5,-0.00002466,0.00010196,-0.00009895,-0.00001329,-0.00056585,-0.000025
 92,0.00029209,0.00137370,-0.00107793,-0.00037321,-0.00032831,0.0006712
 8,-0.00007651,-0.00252286,-0.00028286,0.00067300,0.00201190,0.00058739
 ,-0.00064678,-0.00074083,-0.00051589,-0.00038644,-0.00127930,-0.001100
 53,0.00160828,-0.00331723,0.00130632,-0.00026324,0.00037523,-0.0010591
 2,-0.00982759,0.00057565,-0.00110258,0.00045807,-0.00000969,0.00000136
 ,-0.00000134,-0.00000060,0.00000081,-0.00000031,0.00000018,0.00000066,
 -0.00000050,-0.00000065,-0.00000501,-0.00000010,0.00000016,-0.00000066
 ,0.00000430,-0.00001500,0.00000730,-0.00000532,-0.00004735,0.00001176,
 -0.00003038,0.00001201,0.00003385,-0.00004551,-0.00020052,-0.00003111,
 0.00000335,-0.00029733,-0.00022275,0.00021202,-0.00007977,0.00007935,-
 0.00102800,0.00763350,-0.03895613,0.03700046,0.00887147,0.47109305,0.0
 0002274,0.00004408,-0.00002276,0.00003265,-0.00009279,0.00007264,-0.00
 029519,0.00030113,0.00005541,0.00163563,0.00008820,-0.00087078,-0.0038
 7471,0.00320153,0.00073565,0.00085899,-0.00188970,0.00026345,0.0066860
 7,0.00031541,-0.00146930,-0.00488325,-0.00192321,0.00111009,0.00251177
 ,0.00121206,-0.00166700,0.00250247,0.00063861,-0.00037881,0.00387606,-
 0.00131527,-0.00197377,-0.01259546,-0.00915999,0.00877242,0.00391365,0
 .00434313,0.00077875,0.00002654,-0.00000397,0.00000431,0.00000166,-0.0
 0000119,0.00000009,0.00000151,-0.00000508,0.00000056,0.00000075,0.0000
 0834,-0.00000155,-0.00000125,0.00000402,-0.00001309,0.00004574,-0.0000
 2491,0.00001355,0.00013399,-0.00003184,0.00008701,-0.00002011,-0.00009
 356,0.00013460,0.00077039,0.00023823,-0.00022830,0.00078499,0.00042926
 ,-0.00007597,-0.00044413,-0.00057228,0.00003970,-0.02723029,0.03290614
 ,-0.12381011,-0.00546743,-0.00484281,0.47421913,-0.00000252,-0.0000031
 0,0.00000349,-0.00000242,0.00000690,-0.00000543,0.00001990,-0.00002516
 ,-0.00001524,-0.00011317,-0.00000661,0.00005423,0.00025616,-0.00019596
 ,-0.00000038,-0.00008074,0.00011604,-0.00002046,-0.00041365,-0.0000312
 6,0.00007215,0.00025627,0.00038860,0.00010317,-0.00040072,-0.00024350,
 -0.00002579,0.00024006,0.00000876,-0.00014858,-0.00059334,0.00031171,-
 0.00031189,0.00159451,0.00028382,-0.00038072,0.00057003,-0.00017324,-0
 .00010705,-0.00000206,0.00000027,-0.00000025,-0.00000032,0.00000016,-0
 .00000034,0.00000005,0.00000049,-0.00000004,-0.00000022,-0.00000083,0.
 00000014,0.00000033,-0.00000018,0.00000063,-0.00000190,0.00000218,-0.0
 0000095,-0.00001006,0.00000217,-0.00000625,0.00000191,0.00000678,-0.00
 000831,-0.00002557,-0.00000841,0.00000286,-0.00005384,-0.00002744,-0.0
 0002311,0.00000007,0.00005285,0.00019538,0.00380504,0.00948115,-0.0073
 5922,-0.06621480,-0.00440432,-0.00129517,0.07766745,0.00000718,0.00001
 276,-0.00000717,0.00000865,-0.00002808,0.00002078,-0.00008567,0.000085
 05,0.00002572,0.00047671,0.00002644,-0.00025515,-0.00117129,0.00096526
 ,0.00021526,0.00022742,-0.00056646,0.00007822,0.00202501,0.00007621,-0
 .00051987,-0.00169229,-0.00002313,0.00059096,0.00024950,0.00024959,-0.
 00011758,0.00161516,0.00007749,-0.00017592,0.00020516,-0.00082641,-0.0
 0107606,-0.00279363,0.00089621,-0.00064902,0.00065093,0.00091506,0.000
 10370,0.00000784,-0.00000118,0.00000112,0.00000052,-0.00000058,0.00000
 009,-0.00000005,-0.00000088,0.00000037,0.00000064,0.00000360,-0.000000
 06,-0.00000044,0.00000076,-0.00000367,0.00001236,-0.00000599,0.0000039
 7,0.00004157,-0.00000958,0.00002483,-0.00000530,-0.00002827,0.00003888
 ,0.00016482,0.00002652,-0.00002769,0.00019290,0.00008448,0.00001742,-0
 .00012526,0.00000428,0.00016925,0.00238062,-0.02334968,0.02092241,-0.0
 0545762,-0.25531925,0.04580709,0.02635212,0.38906096,-0.00000675,-0.00
 001184,0.00000684,-0.00000865,0.00002509,-0.00001992,0.00007838,-0.000
 08067,-0.00002543,-0.00044019,-0.00002417,0.00023703,0.00106249,-0.000
 87574,-0.00017950,-0.00022545,0.00051047,-0.00006931,-0.00180620,-0.00
 006616,0.00042528,0.00138963,0.00038586,-0.00029014,-0.00057249,-0.000
 45853,0.00021325,-0.00091516,0.00005494,-0.00007591,-0.00043803,0.0006
 7258,0.00047319,0.00219685,-0.00017382,0.00018252,-0.00031445,-0.00091
 340,-0.00028730,-0.00000720,0.00000110,-0.00000113,-0.00000039,0.00000
 043,-0.00000004,-0.00000017,0.00000127,-0.00000025,-0.00000029,-0.0000
 0256,0.00000029,0.00000024,-0.00000105,0.00000368,-0.00001168,0.000006
 46,-0.00000365,-0.00003768,0.00000854,-0.00002268,0.00000501,0.0000256
 6,-0.00003717,-0.00014595,-0.00002970,0.00003669,-0.00017903,-0.000074
 43,-0.00005884,0.00007343,0.00008163,0.00007063,-0.00470425,0.03303079
 ,-0.01664356,0.00008980,0.05569510,-0.07968090,-0.00802977,-0.04505164
 ,0.08176150,-0.00001424,-0.00002648,0.00001577,-0.00001942,0.00005762,
 -0.00004391,0.00018724,-0.00018584,-0.00004999,-0.00099709,-0.00004340
 ,0.00052755,0.00245250,-0.00205123,-0.00048961,-0.00046448,0.00121636,
 -0.00013629,-0.00424816,-0.00024861,0.00096995,0.00327704,0.00126295,-
 0.00076750,-0.00148058,-0.00164154,0.00048782,-0.00203695,0.00010545,0
 .00087157,-0.00021209,0.00255292,0.00020461,-0.00190525,0.00123198,-0.
 00606662,0.00121079,-0.00169528,-0.00142178,-0.00001649,0.00000247,-0.
 00000246,-0.00000167,0.00000076,-0.00000133,-0.00000058,0.00000300,0.,
 -0.00000080,-0.00000578,0.00000133,0.00000164,-0.00000235,0.00000609,-
 0.00002633,0.00001475,-0.00000713,-0.00008778,0.00001958,-0.00005577,0
 .00001664,0.00005878,-0.00007590,-0.00021471,-0.00007387,0.00015519,-0
 .00023038,-0.00020936,0.00013483,0.00006565,0.00017912,-0.00021704,-0.
 02886384,-0.00609626,-0.00658781,-0.26704011,-0.04267393,-0.02902801,-
 0.02353877,-0.04348442,0.00446588,0.38616489,-0.00000026,-0.00000030,0
 .00000064,-0.00000037,0.00000054,-0.00000060,0.00000328,-0.00000435,-0
 .00000376,-0.00001342,-0.00000062,0.00000770,0.00003683,-0.00003554,0.
 00000473,0.00000029,0.00001912,-0.00000417,-0.00003720,0.00000920,0.00
 000212,0.00002409,-0.00003602,0.00000259,0.00003282,0.00004794,0.00006
 991,-0.00012483,0.00027589,-0.00008248,0.00092544,0.00001304,0.0000116
 3,-0.00088236,0.00221712,0.00166736,-0.00036136,-0.00018951,-0.0001856
 0,-0.00000020,0.00000004,-0.00000004,-0.00000012,-0.00000005,-0.000000
 11,-0.00000010,0.00000021,0.00000009,0.00000005,0.00000020,0.00000016,
 0.00000024,-0.00000011,-0.00000015,-0.00000026,0.00000029,0.00000012,-
 0.00000161,0.00000022,-0.00000111,0.00000019,0.00000086,-0.00000014,-0
 .00001145,-0.00000874,0.00000794,0.00005499,0.00001962,-0.00003027,0.0
 0004128,-0.00000057,0.00009572,0.00226525,0.00468024,-0.00105304,-0.04
 088395,-0.07389894,-0.00390194,-0.05903743,-0.04166496,0.00240930,0.08
 160004,0.09704941,-0.00000924,-0.00001764,0.00000951,-0.00001269,0.000
 03689,-0.00002890,0.00011922,-0.00011869,-0.00002722,-0.00064719,-0.00
 002882,0.00034990,0.00158321,-0.00132503,-0.00032953,-0.00030177,0.000
 78043,-0.00009012,-0.00276038,-0.00015985,0.00061095,0.00214601,0.0008
 1550,-0.00055320,-0.00100306,-0.00084452,0.00064722,-0.00132086,-0.000
 10120,0.00061514,-0.00038510,0.00155185,0.00025573,-0.00113483,0.00311
 659,-0.00498008,-0.00019621,-0.00158711,-0.00099019,-0.00001055,0.0000
 0163,-0.00000166,-0.00000089,0.00000045,-0.00000047,-0.00000062,0.0000
 0191,-0.00000008,-0.00000016,-0.00000347,0.00000079,0.00000083,-0.0000
 0160,0.00000461,-0.00001809,0.00000933,-0.00000476,-0.00005520,0.00001
 271,-0.00003575,0.00000987,0.00003814,-0.00005174,-0.00021118,-0.00009
 039,0.00013349,-0.00018816,-0.00015113,0.00010175,0.00009563,0.0000794
 2,-0.00023026,-0.02724668,-0.00662218,0.00125580,-0.03299976,-0.005101
 74,-0.07440910,0.01066391,0.00797783,0.01066844,0.00400262,0.00352360,
 0.07176636,-0.00000049,0.00000022,0.00000100,0.00000057,-0.00000059,0.
 00000092,-0.00000716,0.00000668,-0.00000071,0.00003166,0.00000112,-0.0
 0001933,-0.00009196,0.00007917,0.00004987,0.00000473,-0.00004359,-0.00
 000605,0.00018145,0.00004224,-0.00003791,-0.00001852,-0.00052980,-0.00
 012609,0.00058546,0.00045850,-0.00007465,-0.00033729,-0.00004295,0.000
 09020,0.00060076,0.00029506,-0.00004429,0.00085486,0.00032723,-0.00059
 061,-0.00040275,0.00016565,-0.00041197,0.00000030,-0.00000015,0.000000
 19,-0.00000014,0.00000004,-0.00000035,0.00000006,-0.00000013,0.0000000
 8,-0.00000063,-0.00000047,0.,0.00000029,0.00000011,-0.00000051,0.00000
 180,-0.00000067,0.00000041,0.00000295,-0.00000070,0.00000074,0.0000002
 9,-0.00000038,0.00000494,0.00000498,0.00001430,-0.00001741,0.00001766,
 0.00001148,0.00000270,0.00002584,-0.00003767,0.00001047,0.00499157,-0.
 00066514,-0.00242721,-0.09848346,0.03514113,0.06167013,0.00697773,0.02
 035330,0.00836734,-0.06208756,0.01640798,0.04984721,0.14714216,-0.0000
 0088,-0.00000153,0.00000146,-0.00000094,0.00000288,-0.00000222,0.00001
 012,-0.00001197,-0.00000932,-0.00005477,-0.00000105,0.00003045,0.00013
 552,-0.00012632,-0.00000428,-0.00002684,0.00006973,-0.00000615,-0.0002
 2413,-0.00001003,0.00004528,0.00013978,0.00022498,0.00000347,-0.000264
 42,-0.00013519,0.00005576,0.00004698,0.00005756,-0.00009776,0.00002914
 ,-0.00002238,0.00009529,0.00073356,0.00055075,0.00044530,0.00000862,-0
 .00027563,0.00004343,-0.00000076,0.00000017,-0.00000023,-0.00000012,-0
 .00000005,0.00000010,-0.00000020,0.00000046,0.,-0.00000021,0.00000016,
 0.00000020,0.00000001,-0.00000019,0.00000054,-0.00000128,0.00000148,-0
 .00000026,-0.00000532,0.00000078,-0.00000251,0.00000064,0.00000245,-0.
 00000476,-0.00002256,-0.00001288,0.00001510,-0.00001863,-0.00000637,-0
 .00001063,0.00003741,0.00001229,0.00007597,0.00069735,0.00675412,-0.00
 115571,0.03336132,-0.09988416,-0.06547897,0.02714614,-0.07074402,-0.04
 512031,0.01005276,0.01154861,-0.00194425,-0.07179500,0.15194467,-0.000
 01015,-0.00001791,0.00001102,-0.00001269,0.00003733,-0.00002955,0.0001
 1460,-0.00012147,-0.00003904,-0.00064936,-0.00003223,0.00034023,0.0015
 8265,-0.00129079,-0.00029686,-0.00037699,0.00076516,-0.00009368,-0.002
 70819,-0.00018362,0.00066955,0.00199741,0.00119071,-0.00029838,-0.0015
 1447,-0.00087303,-0.00009471,-0.00084059,-0.00001268,0.00025505,-0.001
 05980,0.00079839,0.00043729,0.00303157,0.00170926,0.00164615,0.0003729
 4,-0.00163819,0.00003932,-0.00001050,0.00000165,-0.00000176,-0.0000006
 7,0.00000035,0.00000008,-0.00000075,0.00000231,-0.00000018,-0.00000084
 ,-0.00000317,0.00000076,0.00000060,-0.00000193,0.00000572,-0.00001746,
 0.00001100,-0.00000498,-0.00005612,0.00001228,-0.00003262,0.00000957,0
 .00003538,-0.00005553,-0.00024064,-0.00003116,-0.00003839,-0.00022826,
 -0.00014692,0.00001159,0.00013274,0.00024488,-0.00003078,0.00936102,-0
 .00933064,-0.04786343,0.06738534,-0.07346123,-0.20252569,0.00661860,-0
 .02822387,0.00348638,0.03340956,-0.00251125,-0.00438831,-0.11644521,0.
 11305667,0.24894714,-0.00000502,-0.00001010,0.00000547,-0.00001123,0.0
 0002028,-0.00001644,0.00005133,-0.00005642,0.00003884,-0.00033517,0.00
 002057,0.00015039,0.00085451,-0.00055842,0.00009553,-0.00024532,0.0003
 3331,-0.00016785,-0.00086238,-0.00143073,-0.00060778,-0.00414420,-0.00
 051241,0.00281335,-0.00327267,-0.02803277,-0.00792355,-0.00089450,0.00
 009998,0.00003500,-0.00276691,0.00224727,0.00268698,0.00721632,0.02034
 864,0.00579632,-0.07472130,-0.06944337,-0.01530757,-0.00000572,0.00000
 103,-0.00000123,-0.00000066,0.00000021,-0.00000070,-0.00000042,0.00000
 113,0.00000014,0.00000021,-0.00000151,0.00000038,0.00000047,-0.0000005
 0,0.00000199,-0.00001538,0.00000980,-0.00000550,-0.00001773,0.00000351
 ,-0.00001700,0.00000921,0.00004944,-0.00004433,0.00116047,0.00077753,-
 0.00107563,0.00013268,-0.00004727,-0.00020778,0.00058228,0.00105520,0.
 00027237,0.00105032,0.00101699,-0.00028935,-0.00046073,0.00040547,-0.0
 0034074,0.00006458,-0.00015644,0.00011471,0.00011090,-0.00003785,0.000
 03411,0.00000486,0.00001673,0.00015608,0.07652121,-0.00000343,-0.00000
 792,0.00000366,-0.00000704,0.00001515,-0.00001155,0.00003915,-0.000038
 23,0.00001085,-0.00023343,0.00001777,0.00009759,0.00057951,-0.00041027
 ,-0.00006288,-0.00008084,0.00027620,-0.00005085,-0.00060801,-0.0004920
 0,0.00024400,-0.00101364,0.00251609,-0.00184299,-0.00060666,-0.0037142
 6,-0.00295597,0.00001783,0.00051635,0.00051031,0.00331842,0.00021351,-
 0.00266813,-0.00750555,-0.01376094,-0.00394787,-0.06771262,-0.30763463
 ,-0.07596825,-0.00000418,0.00000058,-0.00000068,-0.00000027,0.00000020
 ,-0.00000055,-0.00000040,0.00000111,0.00000017,-0.00000018,-0.00000141
 ,0.00000034,0.00000033,-0.00000053,0.00000181,-0.00000923,0.00000447,-
 0.00000210,-0.00001580,0.00000430,-0.00001353,0.00001418,0.00002129,-0
 .00001892,0.00036198,0.00024364,0.00167842,-0.00002577,-0.00015431,0.0
 0021737,-0.00026353,-0.00062697,-0.00031784,-0.00065407,0.00067326,0.0
 0132133,0.00064243,-0.00022987,-0.00019973,-0.00000268,0.00008380,-0.0
 0002518,0.00007979,-0.00004285,0.00015131,-0.00018698,0.00006064,0.000
 01471,0.07388070,0.32246583,-0.00000051,-0.00000255,0.00000065,0.00000
 034,0.00000392,-0.00000304,0.00002038,-0.00001838,-0.00000648,-0.00008
 962,-0.00005060,0.00008115,0.00025339,-0.00027367,-0.00002643,-0.00021
 169,0.00004815,-0.00006248,-0.00071419,0.00038491,-0.00056210,0.003047
 32,-0.00134708,0.00722163,0.00102568,0.00316852,0.00621169,0.00007653,
 0.00058504,-0.00083554,0.00299429,-0.00261010,0.00393400,-0.00346323,-
 0.00998763,0.00031058,-0.01399423,-0.07571490,-0.06153757,-0.00000151,
 0.00000026,-0.00000024,-0.00000033,0.00000005,-0.00000040,-0.00000033,
 0.00000035,0.00000014,0.00000019,-0.00000037,0.00000026,0.00000011,-0.
 00000026,0.00000067,-0.00000074,0.00000313,-0.00000030,-0.00001181,0.0
 0000030,-0.00000305,-0.00002129,0.00000592,-0.00002037,-0.00106136,0.0
 0154589,-0.00405658,-0.00021074,0.00018280,-0.00062816,-0.00014933,-0.
 00062469,0.00032571,-0.00064285,0.00064219,-0.00233771,-0.00052712,0.0
 0017441,0.00083980,0.00002437,0.00010980,-0.00017002,-0.00030163,-0.00
 002892,-0.00029832,0.00015609,-0.00003167,-0.00005639,0.01380382,0.083
 83516,0.05167887\\-0.00000515,0.00000822,-0.00000874,0.00000254,0.0000
 0184,-0.00000071,-0.00000998,-0.00000226,-0.00001447,0.00002720,0.0000
 3387,0.00000128,-0.00005896,-0.00000052,0.00000653,0.00001245,-0.00000
 217,0.00000544,0.00002898,-0.00001900,-0.00002530,-0.00004564,0.000012
 35,0.00002901,0.00000253,0.00000376,0.00000076,0.00002942,-0.00000324,
 -0.00000791,0.00000294,-0.00001773,-0.00000850,-0.00001094,0.00000753,
 0.00002090,0.00002399,-0.00001949,-0.00000838,-0.00000097,0.00000420,-
 0.00000333,0.00000119,0.00000596,-0.00000680,0.00000176,0.00000904,-0.
 00000144,-0.00000137,0.00000446,-0.00000807,-0.00000217,0.00000246,-0.
 00000243,-0.00000249,0.00000747,0.00000255,0.00000639,0.00000525,-0.00
 000066,-0.00000002,-0.00000719,-0.00000196,0.00000797,-0.00000110,0.00
 000282,-0.00000208,-0.00000193,0.00000044,-0.00000280,-0.00000375,0.00
 000663,0.00000585,0.00001210,-0.00000567,-0.00002336,0.00002310,0.0000
 0396,0.00000295,-0.00003099,0.00001727,-0.00000938,-0.00001150,0.00001
 266,0.00001949,-0.00002055,-0.00001290,-0.00000033,-0.00000021,0.00000
 702\\\@


 THE PROMISED LAND ALWAYS LIES ON THE OTHER SIDE OF A WILDERNESS.

                         -- HAVELOCK ELLIS
 Job cpu time:       0 days  2 hours 55 minutes 29.6 seconds.
 File lengths (MBytes):  RWF=    559 Int=      0 D2E=      0 Chk=     20 Scr=      1
 Normal termination of Gaussian 09 at Tue Oct 30 14:57:47 2018.
WARNING: pbs_rusage is deprecated and values produced may not be accurate


=============================================================================
                                     Resource usage:
                                       CPU time:              18:11:28
   JobId:    1828098.r-man2            Elapsed time:          04:35:09
   Project:             q95            Requested time:        36:00:00
   Service Units:     18.34 
                                       Max physical memory:      682MB
                                       Max virtual memory:      1462MB
                                       Requested memory:           0MB

                                       Number of cpus:               4

                                       Max jobfs disk use:       0.5GB
                                       Requested jobfs:         16.0GB
=============================================================================

