 Entering Gaussian System, Link 0=/apps/gaussian/g09e01/g09/g09
 AtFile(1): /home/507/hio507/Basis/6-31pGd.gbs
 Initial command:
 /apps/gaussian/g09e01/g09/l1.exe "/jobfs/local/1874010.r-man2/Gau-55260.inp" -scrdir="/jobfs/local/1874010.r-man2/"
 Entering Link 1 = /apps/gaussian/g09e01/g09/l1.exe PID=     55261.
  
 Copyright (c) 1988,1990,1992,1993,1995,1998,2003,2009,2015,
            Gaussian, Inc.  All Rights Reserved.
  
 This is part of the Gaussian(R) 09 program.  It is based on
 the Gaussian(R) 03 system (copyright 2003, Gaussian, Inc.),
 the Gaussian(R) 98 system (copyright 1998, Gaussian, Inc.),
 the Gaussian(R) 94 system (copyright 1995, Gaussian, Inc.),
 the Gaussian 92(TM) system (copyright 1992, Gaussian, Inc.),
 the Gaussian 90(TM) system (copyright 1990, Gaussian, Inc.),
 the Gaussian 88(TM) system (copyright 1988, Gaussian, Inc.),
 the Gaussian 86(TM) system (copyright 1986, Carnegie Mellon
 University), and the Gaussian 82(TM) system (copyright 1983,
 Carnegie Mellon University). Gaussian is a federally registered
 trademark of Gaussian, Inc.
  
 This software contains proprietary and confidential information,
 including trade secrets, belonging to Gaussian, Inc.
  
 This software is provided under written license and may be
 used, copied, transmitted, or stored only in accord with that
 written license.
  
 The following legend is applicable only to US Government
 contracts under FAR:
  
                    RESTRICTED RIGHTS LEGEND
  
 Use, reproduction and disclosure by the US Government is
 subject to restrictions as set forth in subparagraphs (a)
 and (c) of the Commercial Computer Software - Restricted
 Rights clause in FAR 52.227-19.
  
 Gaussian, Inc.
 340 Quinnipiac St., Bldg. 40, Wallingford CT 06492
  
  
 ---------------------------------------------------------------
 Warning -- This program may not be used in any manner that
 competes with the business of Gaussian, Inc. or will provide
 assistance to any competitor of Gaussian, Inc.  The licensee
 of this program is prohibited from giving any competitor of
 Gaussian, Inc. access to this program.  By using this program,
 the user acknowledges that Gaussian, Inc. is engaged in the
 business of creating and licensing software in the field of
 computational chemistry and represents and warrants to the
 licensee that it is not a competitor of Gaussian, Inc. and that
 it will not use this program in any manner prohibited above.
 ---------------------------------------------------------------
  

 Cite this work as:
 Gaussian 09, Revision E.01,
 M. J. Frisch, G. W. Trucks, H. B. Schlegel, G. E. Scuseria, 
 M. A. Robb, J. R. Cheeseman, G. Scalmani, V. Barone, B. Mennucci, 
 G. A. Petersson, H. Nakatsuji, M. Caricato, X. Li, H. P. Hratchian, 
 A. F. Izmaylov, J. Bloino, G. Zheng, J. L. Sonnenberg, M. Hada, 
 M. Ehara, K. Toyota, R. Fukuda, J. Hasegawa, M. Ishida, T. Nakajima, 
 Y. Honda, O. Kitao, H. Nakai, T. Vreven, J. A. Montgomery, Jr., 
 J. E. Peralta, F. Ogliaro, M. Bearpark, J. J. Heyd, E. Brothers, 
 K. N. Kudin, V. N. Staroverov, T. Keith, R. Kobayashi, J. Normand, 
 K. Raghavachari, A. Rendell, J. C. Burant, S. S. Iyengar, J. Tomasi, 
 M. Cossi, N. Rega, J. M. Millam, M. Klene, J. E. Knox, J. B. Cross, 
 V. Bakken, C. Adamo, J. Jaramillo, R. Gomperts, R. E. Stratmann, 
 O. Yazyev, A. J. Austin, R. Cammi, C. Pomelli, J. W. Ochterski, 
 R. L. Martin, K. Morokuma, V. G. Zakrzewski, G. A. Voth, 
 P. Salvador, J. J. Dannenberg, S. Dapprich, A. D. Daniels, 
 O. Farkas, J. B. Foresman, J. V. Ortiz, J. Cioslowski, 
 and D. J. Fox, Gaussian, Inc., Wallingford CT, 2013.
 
 ******************************************
 Gaussian 09:  ES64L-G09RevE.01 30-Nov-2015
                31-Oct-2018 
 ******************************************
 %chk=4SsulfCF3_a1.M062X_6-31pGd_opt.chk
 %mem=196608000
 %nproc=4
 Will use up to    4 processors via shared memory.
 ----------------------------------------------------------------------
 # M062X/Gen 6D SCF=Tight INT(grid=ultrafine) OPT IOP(2/17=4) maxdisk=2
 147483648
 ----------------------------------------------------------------------
 1/14=-1,18=20,19=15,26=4,38=1/1,3;
 2/9=110,12=2,17=4,18=5,40=1/2;
 3/5=7,8=2,11=2,16=1,25=1,30=1,71=1,74=-55,75=-5/1,2,3;
 4//1;
 5/5=2,32=2,38=5/2;
 6/7=2,8=2,9=2,10=2,28=1/1;
 7//1,2,3,16;
 1/14=-1,18=20,19=15,26=4/3(2);
 2/9=110,17=4/2;
 99//99;
 2/9=110,17=4/2;
 3/5=7,6=1,8=2,11=2,16=1,25=1,30=1,71=1,74=-55,75=-5,82=7/1,2,3;
 4/5=5,16=3,69=1/1;
 5/5=2,32=2,38=5/2;
 7//1,2,3,16;
 1/14=-1,18=20,19=15,26=4/3(-5);
 2/9=110,17=4/2;
 6/7=2,8=2,9=2,10=2,19=2,28=1/1;
 99/9=1/99;
 ------------------------------
 4SsulfCF3_a1.M062X_6-31pGd_opt
 ------------------------------
 Symbolic Z-matrix:
 Charge = -1 Multiplicity = 1
 C                    -1.65463   1.81935   0.0111 
 C                    -0.28028   1.32875   0.45633 
 C                     0.82842   2.23492  -0.05921 
 N                     2.13423   1.74086   0.36116 
 C                     3.28607   2.35904  -0.11018 
 O                     3.19224   3.55648  -0.51075 
 N                     4.37338   1.5728   -0.09771 
 C                     5.62559   2.10958  -0.28496 
 C                     6.02528   3.42694   0.06111 
 C                     6.63593   1.25314  -0.79099 
 C                     7.94525   1.67528  -0.95744 
 C                     8.31139   2.98192  -0.60889 
 C                     7.33854   3.84916  -0.09874 
 H                    -2.44886   1.16835   0.38908 
 H                    -1.72828   1.84036  -1.082 
 H                    -1.84637   2.83324   0.38016 
 H                    -0.11263   0.30776   0.08904 
 H                    -0.23336   1.28713   1.55146 
 H                     0.68693   3.2475    0.33194 
 H                     0.7682    2.30217  -1.15638 
 H                     2.20964   0.72951   0.39524 
 H                     5.29725   4.11463   0.47435 
 H                     6.36194   0.23522  -1.05564 
 H                     8.68964   0.9904   -1.3556 
 S                     9.98363   3.53928  -0.83731 
 C                     10.64981   3.06429   0.77199 
 F                     10.56076   1.74639   1.01627 
 F                     11.95006   3.39362   0.82156 
 F                     10.04168   3.67723   1.80106 
 H                     7.61425   4.86214   0.18431 
 

 GradGradGradGradGradGradGradGradGradGradGradGradGradGradGradGradGradGrad
 Berny optimization.
 Initialization pass.
                           ----------------------------
                           !    Initial Parameters    !
                           ! (Angstroms and Degrees)  !
 --------------------------                            --------------------------
 ! Name  Definition              Value          Derivative Info.                !
 --------------------------------------------------------------------------------
 ! R1    R(1,2)                  1.5257         estimate D2E/DX2                !
 ! R2    R(1,14)                 1.0943         estimate D2E/DX2                !
 ! R3    R(1,15)                 1.0958         estimate D2E/DX2                !
 ! R4    R(1,16)                 1.0959         estimate D2E/DX2                !
 ! R5    R(2,3)                  1.5219         estimate D2E/DX2                !
 ! R6    R(2,17)                 1.0979         estimate D2E/DX2                !
 ! R7    R(2,18)                 1.0969         estimate D2E/DX2                !
 ! R8    R(3,4)                  1.4581         estimate D2E/DX2                !
 ! R9    R(3,19)                 1.0947         estimate D2E/DX2                !
 ! R10   R(3,20)                 1.1009         estimate D2E/DX2                !
 ! R11   R(4,5)                  1.3896         estimate D2E/DX2                !
 ! R12   R(4,21)                 1.0147         estimate D2E/DX2                !
 ! R13   R(5,6)                  1.2661         estimate D2E/DX2                !
 ! R14   R(5,7)                  1.3418         estimate D2E/DX2                !
 ! R15   R(7,8)                  1.3752         estimate D2E/DX2                !
 ! R16   R(8,9)                  1.4195         estimate D2E/DX2                !
 ! R17   R(8,10)                 1.4179         estimate D2E/DX2                !
 ! R18   R(9,13)                 1.3887         estimate D2E/DX2                !
 ! R19   R(9,22)                 1.0834         estimate D2E/DX2                !
 ! R20   R(10,11)                1.3857         estimate D2E/DX2                !
 ! R21   R(10,23)                1.0869         estimate D2E/DX2                !
 ! R22   R(11,12)                1.401          estimate D2E/DX2                !
 ! R23   R(11,24)                1.0871         estimate D2E/DX2                !
 ! R24   R(12,13)                1.3996         estimate D2E/DX2                !
 ! R25   R(12,25)                1.7774         estimate D2E/DX2                !
 ! R26   R(13,30)                1.0873         estimate D2E/DX2                !
 ! R27   R(25,26)                1.8053         estimate D2E/DX2                !
 ! R28   R(26,27)                1.3433         estimate D2E/DX2                !
 ! R29   R(26,28)                1.3422         estimate D2E/DX2                !
 ! R30   R(26,29)                1.3433         estimate D2E/DX2                !
 ! A1    A(2,1,14)             111.2043         estimate D2E/DX2                !
 ! A2    A(2,1,15)             110.9662         estimate D2E/DX2                !
 ! A3    A(2,1,16)             110.9057         estimate D2E/DX2                !
 ! A4    A(14,1,15)            107.8897         estimate D2E/DX2                !
 ! A5    A(14,1,16)            107.884          estimate D2E/DX2                !
 ! A6    A(15,1,16)            107.846          estimate D2E/DX2                !
 ! A7    A(1,2,3)              111.4642         estimate D2E/DX2                !
 ! A8    A(1,2,17)             109.8132         estimate D2E/DX2                !
 ! A9    A(1,2,18)             110.0034         estimate D2E/DX2                !
 ! A10   A(3,2,17)             109.2165         estimate D2E/DX2                !
 ! A11   A(3,2,18)             109.2466         estimate D2E/DX2                !
 ! A12   A(17,2,18)            106.9873         estimate D2E/DX2                !
 ! A13   A(2,3,4)              110.6717         estimate D2E/DX2                !
 ! A14   A(2,3,19)             109.6066         estimate D2E/DX2                !
 ! A15   A(2,3,20)             109.52           estimate D2E/DX2                !
 ! A16   A(4,3,19)             109.0359         estimate D2E/DX2                !
 ! A17   A(4,3,20)             110.9182         estimate D2E/DX2                !
 ! A18   A(19,3,20)            107.0098         estimate D2E/DX2                !
 ! A19   A(3,4,5)              119.5911         estimate D2E/DX2                !
 ! A20   A(3,4,21)             114.4529         estimate D2E/DX2                !
 ! A21   A(5,4,21)             113.1517         estimate D2E/DX2                !
 ! A22   A(4,5,6)              117.8138         estimate D2E/DX2                !
 ! A23   A(4,5,7)              114.0696         estimate D2E/DX2                !
 ! A24   A(6,5,7)              128.1066         estimate D2E/DX2                !
 ! A25   A(5,7,8)              120.5213         estimate D2E/DX2                !
 ! A26   A(7,8,9)              125.8336         estimate D2E/DX2                !
 ! A27   A(7,8,10)             117.4945         estimate D2E/DX2                !
 ! A28   A(9,8,10)             116.5478         estimate D2E/DX2                !
 ! A29   A(8,9,13)             121.3576         estimate D2E/DX2                !
 ! A30   A(8,9,22)             119.5291         estimate D2E/DX2                !
 ! A31   A(13,9,22)            119.1051         estimate D2E/DX2                !
 ! A32   A(8,10,11)            122.1505         estimate D2E/DX2                !
 ! A33   A(8,10,23)            118.2286         estimate D2E/DX2                !
 ! A34   A(11,10,23)           119.6207         estimate D2E/DX2                !
 ! A35   A(10,11,12)           120.0769         estimate D2E/DX2                !
 ! A36   A(10,11,24)           119.9389         estimate D2E/DX2                !
 ! A37   A(12,11,24)           119.9838         estimate D2E/DX2                !
 ! A38   A(11,12,13)           119.1391         estimate D2E/DX2                !
 ! A39   A(11,12,25)           120.4217         estimate D2E/DX2                !
 ! A40   A(13,12,25)           120.4312         estimate D2E/DX2                !
 ! A41   A(9,13,12)            120.7243         estimate D2E/DX2                !
 ! A42   A(9,13,30)            119.5431         estimate D2E/DX2                !
 ! A43   A(12,13,30)           119.7303         estimate D2E/DX2                !
 ! A44   A(12,25,26)            98.6333         estimate D2E/DX2                !
 ! A45   A(25,26,27)           113.3137         estimate D2E/DX2                !
 ! A46   A(25,26,28)           109.0162         estimate D2E/DX2                !
 ! A47   A(25,26,29)           113.3146         estimate D2E/DX2                !
 ! A48   A(27,26,28)           107.3508         estimate D2E/DX2                !
 ! A49   A(27,26,29)           106.1609         estimate D2E/DX2                !
 ! A50   A(28,26,29)           107.3558         estimate D2E/DX2                !
 ! D1    D(14,1,2,3)          -179.6554         estimate D2E/DX2                !
 ! D2    D(14,1,2,17)           59.1746         estimate D2E/DX2                !
 ! D3    D(14,1,2,18)          -58.3182         estimate D2E/DX2                !
 ! D4    D(15,1,2,3)            60.2441         estimate D2E/DX2                !
 ! D5    D(15,1,2,17)          -60.9259         estimate D2E/DX2                !
 ! D6    D(15,1,2,18)         -178.4187         estimate D2E/DX2                !
 ! D7    D(16,1,2,3)           -59.6028         estimate D2E/DX2                !
 ! D8    D(16,1,2,17)          179.2272         estimate D2E/DX2                !
 ! D9    D(16,1,2,18)           61.7345         estimate D2E/DX2                !
 ! D10   D(1,2,3,4)           -179.2556         estimate D2E/DX2                !
 ! D11   D(1,2,3,19)            60.4488         estimate D2E/DX2                !
 ! D12   D(1,2,3,20)           -56.6651         estimate D2E/DX2                !
 ! D13   D(17,2,3,4)           -57.7383         estimate D2E/DX2                !
 ! D14   D(17,2,3,19)         -178.034          estimate D2E/DX2                !
 ! D15   D(17,2,3,20)           64.8521         estimate D2E/DX2                !
 ! D16   D(18,2,3,4)            58.9678         estimate D2E/DX2                !
 ! D17   D(18,2,3,19)          -61.3279         estimate D2E/DX2                !
 ! D18   D(18,2,3,20)         -178.4417         estimate D2E/DX2                !
 ! D19   D(2,3,4,5)            174.1194         estimate D2E/DX2                !
 ! D20   D(2,3,4,21)            35.1008         estimate D2E/DX2                !
 ! D21   D(19,3,4,5)           -65.2448         estimate D2E/DX2                !
 ! D22   D(19,3,4,21)          155.7366         estimate D2E/DX2                !
 ! D23   D(20,3,4,5)            52.3472         estimate D2E/DX2                !
 ! D24   D(20,3,4,21)          -86.6713         estimate D2E/DX2                !
 ! D25   D(3,4,5,6)             22.9089         estimate D2E/DX2                !
 ! D26   D(3,4,5,7)           -156.034          estimate D2E/DX2                !
 ! D27   D(21,4,5,6)           162.4218         estimate D2E/DX2                !
 ! D28   D(21,4,5,7)           -16.5212         estimate D2E/DX2                !
 ! D29   D(4,5,7,8)           -167.3474         estimate D2E/DX2                !
 ! D30   D(6,5,7,8)             13.8408         estimate D2E/DX2                !
 ! D31   D(5,7,8,9)             29.0261         estimate D2E/DX2                !
 ! D32   D(5,7,8,10)          -155.1785         estimate D2E/DX2                !
 ! D33   D(7,8,9,13)           176.2136         estimate D2E/DX2                !
 ! D34   D(7,8,9,22)            -2.738          estimate D2E/DX2                !
 ! D35   D(10,8,9,13)            0.3828         estimate D2E/DX2                !
 ! D36   D(10,8,9,22)         -178.5688         estimate D2E/DX2                !
 ! D37   D(7,8,10,11)         -176.9151         estimate D2E/DX2                !
 ! D38   D(7,8,10,23)            3.2276         estimate D2E/DX2                !
 ! D39   D(9,8,10,11)           -0.725          estimate D2E/DX2                !
 ! D40   D(9,8,10,23)          179.4177         estimate D2E/DX2                !
 ! D41   D(8,9,13,12)           -0.0018         estimate D2E/DX2                !
 ! D42   D(8,9,13,30)         -179.4545         estimate D2E/DX2                !
 ! D43   D(22,9,13,12)         178.9541         estimate D2E/DX2                !
 ! D44   D(22,9,13,30)          -0.4986         estimate D2E/DX2                !
 ! D45   D(8,10,11,12)           0.6798         estimate D2E/DX2                !
 ! D46   D(8,10,11,24)        -179.5404         estimate D2E/DX2                !
 ! D47   D(23,10,11,12)       -179.4649         estimate D2E/DX2                !
 ! D48   D(23,10,11,24)          0.315          estimate D2E/DX2                !
 ! D49   D(10,11,12,13)         -0.2633         estimate D2E/DX2                !
 ! D50   D(10,11,12,25)       -179.242          estimate D2E/DX2                !
 ! D51   D(24,11,12,13)        179.957          estimate D2E/DX2                !
 ! D52   D(24,11,12,25)          0.9782         estimate D2E/DX2                !
 ! D53   D(11,12,13,9)          -0.0686         estimate D2E/DX2                !
 ! D54   D(11,12,13,30)        179.3831         estimate D2E/DX2                !
 ! D55   D(25,12,13,9)         178.9101         estimate D2E/DX2                !
 ! D56   D(25,12,13,30)         -1.6382         estimate D2E/DX2                !
 ! D57   D(11,12,25,26)        -89.7861         estimate D2E/DX2                !
 ! D58   D(13,12,25,26)         91.2484         estimate D2E/DX2                !
 ! D59   D(12,25,26,27)         60.0855         estimate D2E/DX2                !
 ! D60   D(12,25,26,28)        179.558          estimate D2E/DX2                !
 ! D61   D(12,25,26,29)        -60.9627         estimate D2E/DX2                !
 --------------------------------------------------------------------------------
 Trust Radius=3.00D-01 FncErr=1.00D-07 GrdErr=1.00D-06
 Number of steps in this run=    151 maximum allowed number of steps=    180.
 GradGradGradGradGradGradGradGradGradGradGradGradGradGradGradGradGradGrad

                          Input orientation:                          
 ---------------------------------------------------------------------
 Center     Atomic      Atomic             Coordinates (Angstroms)
 Number     Number       Type             X           Y           Z
 ---------------------------------------------------------------------
      1          6           0       -1.654633    1.819354    0.011096
      2          6           0       -0.280279    1.328753    0.456327
      3          6           0        0.828420    2.234916   -0.059215
      4          7           0        2.134232    1.740864    0.361164
      5          6           0        3.286069    2.359039   -0.110182
      6          8           0        3.192241    3.556478   -0.510752
      7          7           0        4.373377    1.572804   -0.097714
      8          6           0        5.625589    2.109584   -0.284957
      9          6           0        6.025280    3.426944    0.061111
     10          6           0        6.635930    1.253140   -0.790994
     11          6           0        7.945253    1.675282   -0.957441
     12          6           0        8.311394    2.981916   -0.608889
     13          6           0        7.338545    3.849159   -0.098736
     14          1           0       -2.448858    1.168346    0.389076
     15          1           0       -1.728284    1.840360   -1.082003
     16          1           0       -1.846372    2.833237    0.380161
     17          1           0       -0.112627    0.307757    0.089039
     18          1           0       -0.233360    1.287125    1.551457
     19          1           0        0.686930    3.247502    0.331941
     20          1           0        0.768198    2.302172   -1.156384
     21          1           0        2.209637    0.729514    0.395239
     22          1           0        5.297248    4.114629    0.474354
     23          1           0        6.361944    0.235220   -1.055639
     24          1           0        8.689637    0.990400   -1.355602
     25         16           0        9.983631    3.539282   -0.837305
     26          6           0       10.649811    3.064294    0.771992
     27          9           0       10.560760    1.746390    1.016270
     28          9           0       11.950056    3.393618    0.821565
     29          9           0       10.041682    3.677227    1.801061
     30          1           0        7.614251    4.862143    0.184310
 ---------------------------------------------------------------------
                    Distance matrix (angstroms):
                    1          2          3          4          5
     1  C    0.000000
     2  C    1.525703   0.000000
     3  C    2.518568   1.521883   0.000000
     4  N    3.805812   2.451276   1.458065   0.000000
     5  C    4.971569   3.755164   2.461309   1.389617   0.000000
     6  O    5.175143   4.237498   2.745553   2.275098   1.266143
     7  N    6.034031   4.692871   3.606466   2.291851   1.341849
     8  C    7.292017   6.003205   4.804113   3.569734   2.359265
     9  C    7.846521   6.657226   5.333175   4.251252   2.945002
    10  C    8.348496   7.028191   5.935197   4.672326   3.592783
    11  C    9.649696   8.353334   7.195090   5.959109   4.784701
    12  C   10.052742   8.813879   7.540229   6.374836   5.088278
    13  C    9.220055   8.044067   6.707389   5.633940   4.317771
    14  H    1.094292   2.175543   3.475498   4.618796   5.878469
    15  H    1.095779   2.173689   2.781817   4.124520   5.133927
    16  H    1.095870   2.172998   2.775888   4.127815   5.177572
    17  H    2.160737   1.097926   2.149765   2.678848   3.974743
    18  H    2.162405   1.096924   2.149406   2.688525   4.036883
    19  H    2.761424   2.152338   1.094693   2.089377   2.782151
    20  H    2.732440   2.155849   1.100877   2.117562   2.727168
    21  H    4.033348   2.561737   2.092970   1.014729   2.017303
    22  H    7.335635   6.234600   4.877340   3.956291   2.732878
    23  H    8.240929   6.899346   5.967540   4.706149   3.855581
    24  H   10.467041   9.157344   8.064005   6.817904   5.711636
    25  S   11.795216  10.578647   9.280339   8.141480   6.839519
    26  C   12.390649  11.071523   9.891335   8.627591   7.449854
    27  F   12.256897  10.863520   9.803763   8.451956   7.386837
    28  F   13.719428  12.408793  11.216467   9.964635   8.775145
    29  F   11.977455  10.670825   9.509210   8.267440   7.143443
    30  H    9.757088   8.653464   7.280737   6.309062   5.008534
                    6          7          8          9         10
     6  O    0.000000
     7  N    2.345345   0.000000
     8  C    2.840012   1.375219   0.000000
     9  C    2.893080   2.488341   1.419490   0.000000
    10  C    4.152457   2.387880   1.417872   2.413379   0.000000
    11  C    5.131233   3.675314   2.453914   2.791427   1.385725
    12  C    5.152230   4.213653   2.842436   2.423482   2.414334
    13  C    4.176991   3.738183   2.448472   1.388698   2.777086
    14  H    6.191515   6.851528   8.157018   8.776094   9.161503
    15  H    5.242419   6.186330   7.401839   7.996356   8.389851
    16  H    5.167633   6.364145   7.536330   7.900455   8.707340
    17  H    4.672910   4.664703   6.026075   6.885056   6.871043
    18  H    4.597543   4.901367   6.194848   6.780156   7.257781
    19  H    2.661237   4.071745   5.105465   5.348227   6.374094
    20  H    2.804659   3.827542   4.938697   5.512197   5.971956
    21  H    3.126988   2.374008   3.746464   4.684752   4.612311
    22  H    2.390193   2.764358   2.169001   1.083380   3.403131
    23  H    4.623275   2.580921   2.156249   3.398172   1.086861
    24  H    6.125348   4.533385   3.433255   3.878481   2.146049
    25  S    6.799259   5.990741   4.619703   4.060581   4.054096
    26  C    7.583076   6.509575   5.222205   4.692884   4.672734
    27  F    7.739721   6.289261   5.116738   4.930230   4.348998
    28  F    8.860074   7.846432   6.547672   5.973472   5.951632
    29  F    7.230069   6.337477   5.129410   4.384239   4.918749
    30  H    4.662837   4.626289   3.428056   2.144716   3.864354
                   11         12         13         14         15
    11  C    0.000000
    12  C    1.401014   0.000000
    13  C    2.414790   1.399572   0.000000
    14  H   10.493218  10.957554  10.159624   0.000000
    15  H    9.675748  10.115440   9.338601   1.770565   0.000000
    16  H    9.950174  10.206887   9.253331   1.770574   1.771348
    17  H    8.239822   8.865797   8.252075   2.507710   2.516060
    18  H    8.563582   8.975089   8.162162   2.504729   3.078308
    19  H    7.537747   7.686881   6.692642   3.762887   3.132499
    20  H    7.207128   7.593524   6.832367   3.744790   2.539927
    21  H    5.968376   6.581264   6.023446   4.679122   4.350108
    22  H    3.874581   3.397282   2.136773   8.287944   7.546698
    23  H    2.142496   3.397688   3.863932   8.977091   8.247967
    24  H    1.087062   2.160274   3.402597  11.275710  10.456116
    25  S    2.764763   1.777416   2.763692  12.715822  11.837026
    26  C    3.497846   2.716950   3.512644  13.240709  12.575873
    27  F    3.277418   3.037650   4.005939  13.037548  12.467245
    28  F    4.707014   3.931356   4.724458  14.576268  13.897236
    29  F    4.001516   3.047165   3.308435  12.818025  12.256355
    30  H    3.401358   2.156484   1.087320  10.721577   9.900388
                   16         17         18         19         20
    16  H    0.000000
    17  H    3.077121   0.000000
    18  H    2.522737   1.764201   0.000000
    19  H    2.567403   3.056205   2.485403   0.000000
    20  H    3.078795   2.510900   3.060366   1.765040   0.000000
    21  H    4.569145   2.380030   2.759710   2.943282   2.637903
    22  H    7.258247   6.626273   6.304170   4.693317   5.143598
    23  H    8.728555   6.575380   7.169483   6.573052   5.964263
    24  H   10.835885   8.946107   9.389297   8.484435   8.031789
    25  S   11.913426  10.641208  10.731510   9.374483   9.303573
    26  C   12.504460  11.130813  11.054832   9.974278  10.096819
    27  F   12.470878  10.809746  10.817133  10.010703  10.046073
    28  F   13.814857  12.472668  12.385704  11.274710  11.407781
    29  F   12.002379  10.834867  10.552316   9.479154   9.830298
    30  H    9.677717   8.969735   8.731256   7.114537   7.430973
                   21         22         23         24         25
    21  H    0.000000
    22  H    4.582424   0.000000
    23  H    4.426176   4.303984   0.000000
    24  H    6.717433   4.961638   2.465447   0.000000
    25  S    8.357569   4.900374   4.907251   2.905142   0.000000
    26  C    8.765255   5.462758   5.452495   3.559491   1.805338
    27  F    8.435697   5.797136   4.920010   3.114225   2.642590
    28  F   10.107174   6.700766   6.687777   4.598461   2.576799
    29  F    8.485651   4.945819   5.792117   4.360227   2.642607
    30  H    6.806833   2.451817   4.951178   4.303275   2.899590
                   26         27         28         29         30
    26  C    0.000000
    27  F    1.343307   0.000000
    28  F    1.342217   2.163657   0.000000
    29  F    1.343313   2.147899   2.163732   0.000000
    30  H    3.576627   4.368294   4.621889   3.148068   0.000000
 Stoichiometry    C11H12F3N2OS(1-)
 Framework group  C1[X(C11H12F3N2OS)]
 Deg. of freedom    84
 Full point group                 C1      NOp   1
 Largest Abelian subgroup         C1      NOp   1
 Largest concise Abelian subgroup C1      NOp   1
                         Standard orientation:                         
 ---------------------------------------------------------------------
 Center     Atomic      Atomic             Coordinates (Angstroms)
 Number     Number       Type             X           Y           Z
 ---------------------------------------------------------------------
      1          6           0        7.821835   -0.183287    0.194470
      2          6           0        6.500697    0.414477    0.668856
      3          6           0        5.310749   -0.288043    0.031191
      4          7           0        4.058843    0.307746    0.482544
      5          6           0        2.858294   -0.110591   -0.078449
      6          8           0        2.824363   -1.257350   -0.614091
      7          7           0        1.870388    0.793562    0.005858
      8          6           0        0.570662    0.435246   -0.265348
      9          6           0        0.009071   -0.855540   -0.082490
     10          6           0       -0.316141    1.458330   -0.686347
     11          6           0       -1.659833    1.217553   -0.924576
     12          6           0       -2.186947   -0.066952   -0.737393
     13          6           0       -1.338753   -1.096667   -0.314245
     14          1           0        8.674206    0.320830    0.660090
     15          1           0        7.927286   -0.088661   -0.892111
     16          1           0        7.882030   -1.248139    0.446260
     17          1           0        6.465186    1.483261    0.420095
     18          1           0        6.424125    0.336761    1.760341
     19          1           0        5.320512   -1.348112    0.304158
     20          1           0        5.397598   -0.236964   -1.065066
     21          1           0        4.101000    1.310389    0.632893
     22          1           0        0.638299   -1.667856    0.260914
     23          1           0        0.083114    2.459574   -0.825532
     24          1           0       -2.306100    2.027348   -1.253627
     25         16           0       -3.904704   -0.390634   -1.059500
     26          6           0       -4.561749   -0.025227    0.581846
     27          9           0       -4.327241    1.236215    0.979644
     28          9           0       -5.892467   -0.200080    0.569113
     29          9           0       -4.062415   -0.819414    1.543316
     30          1           0       -1.739724   -2.094927   -0.156244
 ---------------------------------------------------------------------
 Rotational constants (GHZ):      1.4940490      0.1057075      0.1051949
 General basis read from cards:  (6D, 7F)
 There are   370 symmetry adapted cartesian basis functions of A   symmetry.
 There are   370 symmetry adapted basis functions of A   symmetry.
   370 basis functions,   648 primitive gaussians,   370 cartesian basis functions
    72 alpha electrons       72 beta electrons
       nuclear repulsion energy      1386.7590333013 Hartrees.
 NAtoms=   30 NActive=   30 NUniq=   30 SFac= 1.00D+00 NAtFMM=   60 NAOKFM=F Big=F
 Integral buffers will be    131072 words long.
 Raffenetti 2 integral format.
 Two-electron integral symmetry is turned on.
 One-electron integrals computed using PRISM.
 NBasis=   370 RedAO= T EigKep=  1.96D-06  NBF=   370
 NBsUse=   370 1.00D-06 EigRej= -1.00D+00 NBFU=   370
 ExpMin= 4.05D-02 ExpMax= 2.19D+04 ExpMxC= 3.30D+03 IAcc=3 IRadAn=         5 AccDes= 0.00D+00
 Harris functional with IExCor= 1009 and IRadAn=       5 diagonalized for initial guess.
 HarFok:  IExCor= 1009 AccDes= 0.00D+00 IRadAn=         5 IDoV= 1 UseB2=F ITyADJ=14
 ICtDFT=  3500011 ScaDFX=  1.000000  1.000000  1.000000  1.000000
 FoFCou: FMM=F IPFlag=           0 FMFlag=      100000 FMFlg1=           0
         NFxFlg=           0 DoJE=T BraDBF=F KetDBF=T FulRan=T
         wScrn=  0.000000 ICntrl=     500 IOpCl=  0 I1Cent=   200000004 NGrid=           0
         NMat0=    1 NMatS0=      1 NMatT0=    0 NMatD0=    1 NMtDS0=    0 NMtDT0=    0
 Petite list used in FoFCou.
 Requested convergence on RMS density matrix=1.00D-08 within 128 cycles.
 Requested convergence on MAX density matrix=1.00D-06.
 Requested convergence on             energy=1.00D-06.
 No special actions if energy rises.
 SCF Done:  E(RM062X) =  -1308.56642253     A.U. after   17 cycles
            NFock= 17  Conv=0.38D-08     -V/T= 2.0066

 **********************************************************************

            Population analysis using the SCF density.

 **********************************************************************

 Orbital symmetries:
       Occupied  (A) (A) (A) (A) (A) (A) (A) (A) (A) (A) (A) (A)
                 (A) (A) (A) (A) (A) (A) (A) (A) (A) (A) (A) (A)
                 (A) (A) (A) (A) (A) (A) (A) (A) (A) (A) (A) (A)
                 (A) (A) (A) (A) (A) (A) (A) (A) (A) (A) (A) (A)
                 (A) (A) (A) (A) (A) (A) (A) (A) (A) (A) (A) (A)
                 (A) (A) (A) (A) (A) (A) (A) (A) (A) (A) (A) (A)
       Virtual   (A) (A) (A) (A) (A) (A) (A) (A) (A) (A) (A) (A)
                 (A) (A) (A) (A) (A) (A) (A) (A) (A) (A) (A) (A)
                 (A) (A) (A) (A) (A) (A) (A) (A) (A) (A) (A) (A)
                 (A) (A) (A) (A) (A) (A) (A) (A) (A) (A) (A) (A)
                 (A) (A) (A) (A) (A) (A) (A) (A) (A) (A) (A) (A)
                 (A) (A) (A) (A) (A) (A) (A) (A) (A) (A) (A) (A)
                 (A) (A) (A) (A) (A) (A) (A) (A) (A) (A) (A) (A)
                 (A) (A) (A) (A) (A) (A) (A) (A) (A) (A) (A) (A)
                 (A) (A) (A) (A) (A) (A) (A) (A) (A) (A) (A) (A)
                 (A) (A) (A) (A) (A) (A) (A) (A) (A) (A) (A) (A)
                 (A) (A) (A) (A) (A) (A) (A) (A) (A) (A) (A) (A)
                 (A) (A) (A) (A) (A) (A) (A) (A) (A) (A) (A) (A)
                 (A) (A) (A) (A) (A) (A) (A) (A) (A) (A) (A) (A)
                 (A) (A) (A) (A) (A) (A) (A) (A) (A) (A) (A) (A)
                 (A) (A) (A) (A) (A) (A) (A) (A) (A) (A) (A) (A)
                 (A) (A) (A) (A) (A) (A) (A) (A) (A) (A) (A) (A)
                 (A) (A) (A) (A) (A) (A) (A) (A) (A) (A) (A) (A)
                 (A) (A) (A) (A) (A) (A) (A) (A) (A) (A) (A) (A)
                 (A) (A) (A) (A) (A) (A) (A) (A) (A) (A) (A) (A)
                 (A) (A) (A) (A) (A) (A) (A) (A) (A) (A) (A) (A)
                 (A) (A) (A) (A) (A) (A) (A) (A) (A) (A) (A) (A)
                 (A) (A) (A) (A) (A) (A) (A) (A) (A) (A) (A) (A)
                 (A) (A) (A) (A) (A) (A) (A) (A) (A) (A) (A) (A)
                 (A) (A) (A) (A) (A) (A) (A) (A) (A) (A) (A) (A)
                 (A) (A) (A) (A) (A) (A) (A) (A) (A) (A)
 The electronic state is 1-A.
 Alpha  occ. eigenvalues --  -89.84185 -25.21361 -25.20401 -25.20355 -19.43830
 Alpha  occ. eigenvalues --  -14.63087 -14.56778 -10.72246 -10.50227 -10.46080
 Alpha  occ. eigenvalues --  -10.45886 -10.45565 -10.45510 -10.45268 -10.43801
 Alpha  occ. eigenvalues --  -10.43586 -10.41526 -10.41091  -8.18622  -6.10724
 Alpha  occ. eigenvalues --   -6.10433  -6.10029  -1.37367  -1.28377  -1.27554
 Alpha  occ. eigenvalues --   -0.98629  -0.87747  -0.85779  -0.82646  -0.78737
 Alpha  occ. eigenvalues --   -0.77477  -0.71678  -0.70765  -0.67436  -0.64913
 Alpha  occ. eigenvalues --   -0.59955  -0.59468  -0.58404  -0.56701  -0.56048
 Alpha  occ. eigenvalues --   -0.52579  -0.50511  -0.47827  -0.47659  -0.46364
 Alpha  occ. eigenvalues --   -0.44834  -0.43991  -0.43474  -0.42277  -0.41557
 Alpha  occ. eigenvalues --   -0.40704  -0.39634  -0.38592  -0.37706  -0.36903
 Alpha  occ. eigenvalues --   -0.36121  -0.34606  -0.34082  -0.33127  -0.32092
 Alpha  occ. eigenvalues --   -0.31190  -0.30160  -0.29334  -0.28262  -0.27611
 Alpha  occ. eigenvalues --   -0.22483  -0.21404  -0.18907  -0.17976  -0.17019
 Alpha  occ. eigenvalues --   -0.14773  -0.09930
 Alpha virt. eigenvalues --    0.09730   0.10631   0.11336   0.11960   0.12336
 Alpha virt. eigenvalues --    0.12934   0.13252   0.13520   0.13884   0.14582
 Alpha virt. eigenvalues --    0.14797   0.15313   0.15672   0.16106   0.16399
 Alpha virt. eigenvalues --    0.16653   0.16934   0.17029   0.17876   0.18384
 Alpha virt. eigenvalues --    0.19279   0.19384   0.19933   0.20661   0.21267
 Alpha virt. eigenvalues --    0.21912   0.22496   0.23075   0.23667   0.24398
 Alpha virt. eigenvalues --    0.24734   0.25518   0.26008   0.26292   0.26366
 Alpha virt. eigenvalues --    0.27855   0.28361   0.28437   0.29208   0.29329
 Alpha virt. eigenvalues --    0.29858   0.29932   0.30442   0.30597   0.31320
 Alpha virt. eigenvalues --    0.31953   0.32459   0.32856   0.33416   0.33784
 Alpha virt. eigenvalues --    0.33880   0.34491   0.34873   0.35405   0.35986
 Alpha virt. eigenvalues --    0.36070   0.36388   0.37068   0.37336   0.38124
 Alpha virt. eigenvalues --    0.38565   0.38901   0.39292   0.39371   0.40420
 Alpha virt. eigenvalues --    0.40683   0.41365   0.41499   0.41759   0.42417
 Alpha virt. eigenvalues --    0.42513   0.42955   0.43613   0.44296   0.44935
 Alpha virt. eigenvalues --    0.45500   0.45781   0.46267   0.46705   0.47334
 Alpha virt. eigenvalues --    0.47573   0.48083   0.48198   0.48843   0.49275
 Alpha virt. eigenvalues --    0.49725   0.50199   0.50539   0.51209   0.51477
 Alpha virt. eigenvalues --    0.52297   0.52626   0.53340   0.54868   0.56548
 Alpha virt. eigenvalues --    0.57047   0.57244   0.57934   0.58705   0.60700
 Alpha virt. eigenvalues --    0.62429   0.63008   0.65267   0.66200   0.69208
 Alpha virt. eigenvalues --    0.69758   0.73073   0.76629   0.76995   0.77797
 Alpha virt. eigenvalues --    0.78562   0.81352   0.82517   0.83146   0.83674
 Alpha virt. eigenvalues --    0.85919   0.86342   0.87984   0.88718   0.89227
 Alpha virt. eigenvalues --    0.89878   0.91229   0.92472   0.93986   0.95940
 Alpha virt. eigenvalues --    0.96781   0.97661   0.98464   0.99038   0.99845
 Alpha virt. eigenvalues --    1.01505   1.02233   1.04115   1.05708   1.06048
 Alpha virt. eigenvalues --    1.07295   1.07763   1.09532   1.10375   1.11033
 Alpha virt. eigenvalues --    1.12071   1.13161   1.13589   1.13838   1.14690
 Alpha virt. eigenvalues --    1.15841   1.16599   1.17689   1.18916   1.20042
 Alpha virt. eigenvalues --    1.20568   1.21386   1.24197   1.25130   1.25779
 Alpha virt. eigenvalues --    1.26217   1.26916   1.27737   1.28004   1.28869
 Alpha virt. eigenvalues --    1.30537   1.33725   1.36623   1.38285   1.39308
 Alpha virt. eigenvalues --    1.40255   1.41122   1.42859   1.43732   1.44744
 Alpha virt. eigenvalues --    1.47460   1.48921   1.50792   1.52953   1.53603
 Alpha virt. eigenvalues --    1.54940   1.56266   1.58515   1.60364   1.61311
 Alpha virt. eigenvalues --    1.62719   1.63114   1.65057   1.66500   1.67490
 Alpha virt. eigenvalues --    1.68808   1.69072   1.70584   1.71862   1.75096
 Alpha virt. eigenvalues --    1.76075   1.78428   1.79109   1.80466   1.80999
 Alpha virt. eigenvalues --    1.82610   1.83957   1.84777   1.85563   1.85607
 Alpha virt. eigenvalues --    1.88408   1.88706   1.95597   1.97437   1.99040
 Alpha virt. eigenvalues --    1.99374   1.99758   2.00588   2.01335   2.01464
 Alpha virt. eigenvalues --    2.01845   2.01962   2.04543   2.05651   2.07395
 Alpha virt. eigenvalues --    2.08645   2.10456   2.12277   2.13048   2.13516
 Alpha virt. eigenvalues --    2.15084   2.15585   2.16368   2.17560   2.18899
 Alpha virt. eigenvalues --    2.19548   2.19998   2.21045   2.21997   2.23084
 Alpha virt. eigenvalues --    2.25645   2.25669   2.27258   2.28757   2.31858
 Alpha virt. eigenvalues --    2.32813   2.33238   2.34506   2.35467   2.39820
 Alpha virt. eigenvalues --    2.40728   2.41600   2.42290   2.43403   2.44198
 Alpha virt. eigenvalues --    2.44542   2.48302   2.48620   2.49600   2.49873
 Alpha virt. eigenvalues --    2.55281   2.60111   2.62472   2.70069   2.72260
 Alpha virt. eigenvalues --    2.73375   2.74693   2.78142   2.80870   2.81755
 Alpha virt. eigenvalues --    2.83434   2.84267   2.85373   2.89205   2.89940
 Alpha virt. eigenvalues --    2.90990   2.93571   2.94175   2.95156   2.99947
 Alpha virt. eigenvalues --    3.07308   3.10604   3.18594   3.25773   3.29430
 Alpha virt. eigenvalues --    3.33178   3.35764   3.37442   3.50141   3.54615
 Alpha virt. eigenvalues --    4.13762   4.30185   4.36571   4.42560   4.45995
 Alpha virt. eigenvalues --    4.50583   4.52336   4.54859   4.57240   4.60042
 Alpha virt. eigenvalues --    4.62106   4.67246   4.68918   4.77535   4.92568
 Alpha virt. eigenvalues --    5.70235   5.81992   6.59099
          Condensed to atoms (all electrons):
               1          2          3          4          5          6
     1  C    5.729390  -0.137851   0.022139   0.008574  -0.066992   0.002662
     2  C   -0.137851   6.533946  -0.748556  -0.047633   0.150319   0.019815
     3  C    0.022139  -0.748556   7.419512   0.232491  -0.383828  -0.049005
     4  N    0.008574  -0.047633   0.232491   8.021379   0.038707  -0.235252
     5  C   -0.066992   0.150319  -0.383828   0.038707   7.865994   0.523369
     6  O    0.002662   0.019815  -0.049005  -0.235252   0.523369   8.573227
     7  N    0.007117  -0.036001   0.021160  -0.547935   0.193083  -0.137183
     8  C   -0.017709   0.044161  -0.569729  -0.041892  -1.264700  -0.172539
     9  C    0.006554  -0.001226   0.169774   0.060669   2.348883   0.121006
    10  C   -0.011189   0.003979  -0.242236  -0.264180  -1.770791  -0.110764
    11  C   -0.000108  -0.000625  -0.005503   0.016161  -0.040765   0.039915
    12  C   -0.000361   0.001758  -0.039209  -0.013494  -0.617876  -0.009195
    13  C   -0.002217   0.011982  -0.145615   0.176470  -1.480079   0.099701
    14  H    0.416554  -0.098415   0.034219   0.000655  -0.001772   0.000005
    15  H    0.421764  -0.060250  -0.012114   0.000015  -0.001450  -0.000017
    16  H    0.417205  -0.053518  -0.014520   0.000183  -0.001298  -0.000086
    17  H   -0.043949   0.453113  -0.091402   0.005521  -0.007774  -0.000443
    18  H   -0.034522   0.411476  -0.057024   0.001239  -0.004612   0.000044
    19  H   -0.019786   0.012570   0.351788  -0.013505   0.001590  -0.005828
    20  H    0.020189  -0.148384   0.534225  -0.129024  -0.008343   0.008704
    21  H    0.005233   0.020520  -0.103687   0.258675   0.046506   0.010348
    22  H   -0.000002  -0.000088  -0.002128  -0.000667  -0.009913  -0.008475
    23  H   -0.000001   0.000027  -0.000925  -0.000763  -0.015280   0.000076
    24  H   -0.000000   0.000000   0.000004  -0.000003   0.001066  -0.000004
    25  S   -0.000017   0.000144  -0.003146   0.001890  -0.113642   0.000240
    26  C    0.000001  -0.000008   0.000239  -0.000144   0.015215  -0.000010
    27  F   -0.000000   0.000000  -0.000004   0.000000  -0.000890   0.000001
    28  F   -0.000000  -0.000000  -0.000000  -0.000000  -0.000022   0.000000
    29  F   -0.000000  -0.000000  -0.000007  -0.000001  -0.001730  -0.000002
    30  H   -0.000000   0.000001  -0.000090  -0.000048  -0.003715   0.000246
               7          8          9         10         11         12
     1  C    0.007117  -0.017709   0.006554  -0.011189  -0.000108  -0.000361
     2  C   -0.036001   0.044161  -0.001226   0.003979  -0.000625   0.001758
     3  C    0.021160  -0.569729   0.169774  -0.242236  -0.005503  -0.039209
     4  N   -0.547935  -0.041892   0.060669  -0.264180   0.016161  -0.013494
     5  C    0.193083  -1.264700   2.348883  -1.770791  -0.040765  -0.617876
     6  O   -0.137183  -0.172539   0.121006  -0.110764   0.039915  -0.009195
     7  N    7.651394   0.710219  -0.183177  -0.028839   0.020370  -0.011738
     8  C    0.710219  12.850422   0.935442  -5.657305   1.459618  -2.178192
     9  C   -0.183177   0.935442  21.633579  -5.716134  -0.693499  -1.355032
    10  C   -0.028839  -5.657305  -5.716134  21.044924  -3.727807   2.999410
    11  C    0.020370   1.459618  -0.693499  -3.727807  10.424282  -1.715649
    12  C   -0.011738  -2.178192  -1.355032   2.999410  -1.715649   9.492437
    13  C   -0.157927   0.172570 -10.426790  -0.631468   0.278104   0.005414
    14  H    0.000008  -0.000043  -0.000008   0.000001   0.000000  -0.000000
    15  H    0.000055   0.000006   0.000017  -0.000017  -0.000000   0.000000
    16  H   -0.000040  -0.000023  -0.000057   0.000016   0.000000  -0.000000
    17  H   -0.002796  -0.002178  -0.000516   0.000489   0.000031  -0.000002
    18  H    0.001351  -0.000291   0.000442  -0.000366  -0.000006  -0.000001
    19  H   -0.011921  -0.003219   0.004086  -0.000428   0.000048   0.000052
    20  H    0.018421  -0.000073  -0.001954  -0.001166  -0.000173  -0.000061
    21  H    0.009441   0.007641   0.008983  -0.016000  -0.001355   0.000093
    22  H   -0.004637  -0.024300   0.280042   0.041977  -0.011881   0.055477
    23  H   -0.010669   0.106983   0.065139   0.274392  -0.120038   0.028239
    24  H    0.000160  -0.013431  -0.045273  -0.066551   0.305267   0.061861
    25  S   -0.002478  -0.288261  -1.489578   0.159375  -0.116536  -0.532342
    26  C    0.000428   0.097596   0.291651  -0.051162   0.178894  -0.096895
    27  F    0.000017  -0.018063   0.005128   0.020238   0.019213   0.036400
    28  F    0.000003  -0.002759  -0.000221   0.002631  -0.008775   0.009192
    29  F   -0.000078  -0.013241  -0.056541   0.023472  -0.074513   0.027468
    30  H   -0.000901   0.008789  -0.023795  -0.038020   0.043489   0.039199
              13         14         15         16         17         18
     1  C   -0.002217   0.416554   0.421764   0.417205  -0.043949  -0.034522
     2  C    0.011982  -0.098415  -0.060250  -0.053518   0.453113   0.411476
     3  C   -0.145615   0.034219  -0.012114  -0.014520  -0.091402  -0.057024
     4  N    0.176470   0.000655   0.000015   0.000183   0.005521   0.001239
     5  C   -1.480079  -0.001772  -0.001450  -0.001298  -0.007774  -0.004612
     6  O    0.099701   0.000005  -0.000017  -0.000086  -0.000443   0.000044
     7  N   -0.157927   0.000008   0.000055  -0.000040  -0.002796   0.001351
     8  C    0.172570  -0.000043   0.000006  -0.000023  -0.002178  -0.000291
     9  C  -10.426790  -0.000008   0.000017  -0.000057  -0.000516   0.000442
    10  C   -0.631468   0.000001  -0.000017   0.000016   0.000489  -0.000366
    11  C    0.278104   0.000000  -0.000000   0.000000   0.000031  -0.000006
    12  C    0.005414  -0.000000   0.000000  -0.000000  -0.000002  -0.000001
    13  C   17.216299  -0.000000   0.000000  -0.000003  -0.000009   0.000005
    14  H   -0.000000   0.520232  -0.028135  -0.027882  -0.003014  -0.002872
    15  H    0.000000  -0.028135   0.504720  -0.030982  -0.004788   0.003998
    16  H   -0.000003  -0.027882  -0.030982   0.504416   0.004260  -0.004785
    17  H   -0.000009  -0.003014  -0.004788   0.004260   0.537548  -0.037497
    18  H    0.000005  -0.002872   0.003998  -0.004785  -0.037497   0.510466
    19  H    0.002113  -0.000090  -0.000219   0.002781   0.004466  -0.006282
    20  H   -0.002172  -0.000056   0.002585  -0.000519  -0.006828   0.004669
    21  H   -0.002270  -0.000002   0.000003  -0.000000   0.002285  -0.000179
    22  H   -0.012590  -0.000000   0.000000  -0.000000  -0.000000   0.000000
    23  H   -0.025127  -0.000000   0.000000  -0.000000  -0.000000   0.000000
    24  H    0.057934  -0.000000   0.000000   0.000000   0.000000  -0.000000
    25  S    1.204607  -0.000000  -0.000000   0.000000   0.000000  -0.000000
    26  C   -0.200700   0.000000  -0.000000  -0.000000  -0.000000   0.000000
    27  F   -0.057118   0.000000  -0.000000   0.000000   0.000000  -0.000000
    28  F    0.004745   0.000000   0.000000  -0.000000  -0.000000   0.000000
    29  F    0.094947   0.000000   0.000000   0.000000   0.000000   0.000000
    30  H    0.283447  -0.000000   0.000000  -0.000000  -0.000000   0.000000
              19         20         21         22         23         24
     1  C   -0.019786   0.020189   0.005233  -0.000002  -0.000001  -0.000000
     2  C    0.012570  -0.148384   0.020520  -0.000088   0.000027   0.000000
     3  C    0.351788   0.534225  -0.103687  -0.002128  -0.000925   0.000004
     4  N   -0.013505  -0.129024   0.258675  -0.000667  -0.000763  -0.000003
     5  C    0.001590  -0.008343   0.046506  -0.009913  -0.015280   0.001066
     6  O   -0.005828   0.008704   0.010348  -0.008475   0.000076  -0.000004
     7  N   -0.011921   0.018421   0.009441  -0.004637  -0.010669   0.000160
     8  C   -0.003219  -0.000073   0.007641  -0.024300   0.106983  -0.013431
     9  C    0.004086  -0.001954   0.008983   0.280042   0.065139  -0.045273
    10  C   -0.000428  -0.001166  -0.016000   0.041977   0.274392  -0.066551
    11  C    0.000048  -0.000173  -0.001355  -0.011881  -0.120038   0.305267
    12  C    0.000052  -0.000061   0.000093   0.055477   0.028239   0.061861
    13  C    0.002113  -0.002172  -0.002270  -0.012590  -0.025127   0.057934
    14  H   -0.000090  -0.000056  -0.000002  -0.000000  -0.000000  -0.000000
    15  H   -0.000219   0.002585   0.000003   0.000000   0.000000   0.000000
    16  H    0.002781  -0.000519  -0.000000  -0.000000  -0.000000   0.000000
    17  H    0.004466  -0.006828   0.002285  -0.000000  -0.000000   0.000000
    18  H   -0.006282   0.004669  -0.000179   0.000000   0.000000  -0.000000
    19  H    0.508241  -0.044133   0.003134   0.000001  -0.000000   0.000000
    20  H   -0.044133   0.561202   0.001277  -0.000001   0.000000  -0.000000
    21  H    0.003134   0.001277   0.372015   0.000004   0.000007  -0.000000
    22  H    0.000001  -0.000001   0.000004   0.476840  -0.000131   0.000013
    23  H   -0.000000   0.000000   0.000007  -0.000131   0.517264  -0.004677
    24  H    0.000000  -0.000000  -0.000000   0.000013  -0.004677   0.517658
    25  S    0.000004  -0.000006  -0.000001   0.000641  -0.001819  -0.000437
    26  C   -0.000000   0.000000   0.000000  -0.000376  -0.000191  -0.002535
    27  F    0.000000  -0.000000  -0.000000  -0.000002  -0.000005  -0.000412
    28  F   -0.000000   0.000000   0.000000  -0.000001  -0.000001  -0.000091
    29  F   -0.000000   0.000000   0.000000   0.000000  -0.000003   0.000027
    30  H   -0.000000   0.000000   0.000000  -0.004421   0.000015  -0.000163
              25         26         27         28         29         30
     1  C   -0.000017   0.000001  -0.000000  -0.000000  -0.000000  -0.000000
     2  C    0.000144  -0.000008   0.000000  -0.000000  -0.000000   0.000001
     3  C   -0.003146   0.000239  -0.000004  -0.000000  -0.000007  -0.000090
     4  N    0.001890  -0.000144   0.000000  -0.000000  -0.000001  -0.000048
     5  C   -0.113642   0.015215  -0.000890  -0.000022  -0.001730  -0.003715
     6  O    0.000240  -0.000010   0.000001   0.000000  -0.000002   0.000246
     7  N   -0.002478   0.000428   0.000017   0.000003  -0.000078  -0.000901
     8  C   -0.288261   0.097596  -0.018063  -0.002759  -0.013241   0.008789
     9  C   -1.489578   0.291651   0.005128  -0.000221  -0.056541  -0.023795
    10  C    0.159375  -0.051162   0.020238   0.002631   0.023472  -0.038020
    11  C   -0.116536   0.178894   0.019213  -0.008775  -0.074513   0.043489
    12  C   -0.532342  -0.096895   0.036400   0.009192   0.027468   0.039199
    13  C    1.204607  -0.200700  -0.057118   0.004745   0.094947   0.283447
    14  H   -0.000000   0.000000   0.000000   0.000000   0.000000  -0.000000
    15  H   -0.000000  -0.000000  -0.000000   0.000000   0.000000   0.000000
    16  H    0.000000  -0.000000   0.000000  -0.000000   0.000000  -0.000000
    17  H    0.000000  -0.000000   0.000000  -0.000000   0.000000  -0.000000
    18  H   -0.000000   0.000000  -0.000000   0.000000   0.000000   0.000000
    19  H    0.000004  -0.000000   0.000000  -0.000000  -0.000000  -0.000000
    20  H   -0.000006   0.000000  -0.000000   0.000000   0.000000   0.000000
    21  H   -0.000001   0.000000  -0.000000   0.000000   0.000000   0.000000
    22  H    0.000641  -0.000376  -0.000002  -0.000001   0.000000  -0.004421
    23  H   -0.001819  -0.000191  -0.000005  -0.000001  -0.000003   0.000015
    24  H   -0.000437  -0.002535  -0.000412  -0.000091   0.000027  -0.000163
    25  S   17.135702  -0.113283  -0.076022  -0.077741  -0.066598  -0.009247
    26  C   -0.113283   4.903629   0.139441   0.128097   0.136675  -0.000381
    27  F   -0.076022   0.139441   9.319390  -0.035715  -0.066863   0.000024
    28  F   -0.077741   0.128097  -0.035715   9.324622  -0.035576  -0.000085
    29  F   -0.066598   0.136675  -0.066863  -0.035576   9.313936  -0.000753
    30  H   -0.009247  -0.000381   0.000024  -0.000085  -0.000753   0.514259
 Mulliken charges:
               1
     1  C   -0.722677
     2  C   -0.331255
     3  C   -0.316825
     4  N   -0.528089
     5  C    0.610742
     6  O   -0.670557
     7  N   -0.496909
     8  C   -0.125501
     9  C    0.062404
    10  C   -0.236482
    11  C   -0.268161
    12  C   -0.186953
    13  C   -0.464256
    14  H    0.190615
    15  H    0.204809
    16  H    0.204852
    17  H    0.193482
    18  H    0.214750
    19  H    0.214536
    20  H    0.191620
    21  H    0.377331
    22  H    0.224614
    23  H    0.187487
    24  H    0.189587
    25  S    0.388551
    26  C    0.573819
    27  F   -0.284756
    28  F   -0.308306
    29  F   -0.280621
    30  H    0.192150
 Sum of Mulliken charges =  -1.00000
 Mulliken charges with hydrogens summed into heavy atoms:
               1
     1  C   -0.122402
     2  C    0.076976
     3  C    0.089331
     4  N   -0.150758
     5  C    0.610742
     6  O   -0.670557
     7  N   -0.496909
     8  C   -0.125501
     9  C    0.287018
    10  C   -0.048995
    11  C   -0.078574
    12  C   -0.186953
    13  C   -0.272106
    25  S    0.388551
    26  C    0.573819
    27  F   -0.284756
    28  F   -0.308306
    29  F   -0.280621
 Electronic spatial extent (au):  <R**2>=           9761.8583
 Charge=             -1.0000 electrons
 Dipole moment (field-independent basis, Debye):
    X=             -1.1098    Y=              1.4072    Z=              0.8539  Tot=              1.9852
 Quadrupole moment (field-independent basis, Debye-Ang):
   XX=           -164.6904   YY=           -120.4988   ZZ=           -122.7048
   XY=              6.3147   XZ=              4.1007   YZ=             -3.9377
 Traceless Quadrupole moment (field-independent basis, Debye-Ang):
   XX=            -28.7258   YY=             15.4659   ZZ=             13.2599
   XY=              6.3147   XZ=              4.1007   YZ=             -3.9377
 Octapole moment (field-independent basis, Debye-Ang**2):
  XXX=            -29.7620  YYY=              2.8299  ZZZ=             26.0854  XYY=            -38.0381
  XXY=             28.6687  XXZ=              4.6138  XZZ=            -27.4999  YZZ=              1.4185
  YYZ=             10.9684  XYZ=             -6.2281
 Hexadecapole moment (field-independent basis, Debye-Ang**3):
 XXXX=         -12978.3997 YYYY=           -595.7381 ZZZZ=           -500.6005 XXXY=             77.8898
 XXXZ=            -45.8187 YYYX=              5.1893 YYYZ=            -15.3820 ZZZX=           -113.1206
 ZZZY=              4.3753 XXYY=          -2087.7527 XXZZ=          -2091.6908 YYZZ=           -190.5835
 XXYZ=            -28.6586 YYXZ=            -12.0079 ZZXY=             -2.2340
 N-N= 1.386759033301D+03 E-N=-5.871025824858D+03  KE= 1.300029973040D+03
 Calling FoFJK, ICntrl=      2127 FMM=F ISym2X=0 I1Cent= 0 IOpClX= 0 NMat=1 NMatS=1 NMatT=0.
 ***** Axes restored to original set *****
 -------------------------------------------------------------------
 Center     Atomic                   Forces (Hartrees/Bohr)
 Number     Number              X              Y              Z
 -------------------------------------------------------------------
      1        6          -0.001053434   -0.001383875    0.000267400
      2        6           0.000500931    0.001272320    0.000298335
      3        6           0.008081481   -0.001500314    0.001559266
      4        7          -0.015072257   -0.008027011    0.003251023
      5        6           0.009478035    0.034857245   -0.011338699
      6        8          -0.001937815   -0.019421033    0.008209205
      7        7           0.011628301   -0.003265532   -0.001845646
      8        6          -0.018115894   -0.006756112    0.003184490
      9        6           0.004772339    0.005635419    0.001078396
     10        6           0.005975070   -0.001364367   -0.001185400
     11        6          -0.003736958   -0.000944548    0.000196506
     12        6           0.004726662    0.001375252   -0.002518591
     13        6          -0.005522457   -0.001702594    0.000542886
     14        1          -0.001175495   -0.000107013    0.000002169
     15        1          -0.000005715    0.000402111   -0.000014958
     16        1           0.000215209    0.000077115   -0.000270641
     17        1          -0.000710947   -0.001007055    0.000009030
     18        1           0.000544716   -0.000371978    0.000211369
     19        1           0.001585775    0.000797069   -0.000801516
     20        1          -0.000444100    0.001306844   -0.001205306
     21        1           0.002682152    0.001204702   -0.000263445
     22        1          -0.002035392   -0.000976707   -0.002026460
     23        1          -0.001683131    0.000610639    0.000582419
     24        1           0.000883397    0.000379855    0.000056098
     25       16          -0.002963326   -0.001502777    0.001093821
     26        6          -0.005923616   -0.000557502   -0.001742842
     27        9           0.001521273   -0.000118738    0.000587594
     28        9           0.005537973    0.000883219    0.001487391
     29        9           0.001484988    0.000181083    0.000608078
     30        1           0.000762234    0.000024281   -0.000011972
 -------------------------------------------------------------------
 Cartesian Forces:  Max     0.034857245 RMS     0.005858970

 GradGradGradGradGradGradGradGradGradGradGradGradGradGradGradGradGradGrad
 Berny optimization.
 FormGI is forming the generalized inverse of G from B-inverse, IUseBI=4.
 Internal  Forces:  Max     0.020820741 RMS     0.002974312
 Search for a local minimum.
 Step number   1 out of a maximum of  151
 All quantities printed in internal units (Hartrees-Bohrs-Radians)
 Mixed Optimization -- RFO/linear search
 Second derivative matrix not updated -- first step.
 ITU=  0
     Eigenvalues ---    0.00300   0.00426   0.00476   0.00669   0.00924
     Eigenvalues ---    0.01810   0.01829   0.01868   0.01956   0.02019
     Eigenvalues ---    0.02020   0.02063   0.02075   0.02125   0.02132
     Eigenvalues ---    0.02175   0.02191   0.02191   0.02461   0.03721
     Eigenvalues ---    0.04427   0.04929   0.05542   0.05575   0.05586
     Eigenvalues ---    0.08175   0.09168   0.12073   0.12684   0.13863
     Eigenvalues ---    0.14347   0.15109   0.15997   0.15999   0.16000
     Eigenvalues ---    0.16000   0.16000   0.16000   0.16000   0.21896
     Eigenvalues ---    0.21912   0.22000   0.22656   0.22945   0.23993
     Eigenvalues ---    0.24928   0.24996   0.24997   0.25000   0.25000
     Eigenvalues ---    0.25000   0.25000   0.25000   0.25000   0.25701
     Eigenvalues ---    0.27980   0.29824   0.30186   0.33585   0.33913
     Eigenvalues ---    0.34025   0.34143   0.34153   0.34276   0.34321
     Eigenvalues ---    0.35124   0.35154   0.35178   0.35589   0.37208
     Eigenvalues ---    0.40243   0.40978   0.44246   0.44580   0.45190
     Eigenvalues ---    0.46334   0.47385   0.47838   0.49987   0.56469
     Eigenvalues ---    0.56470   0.56711   0.56793   0.77546
 RFO step:  Lambda=-4.91540476D-03 EMin= 2.99683456D-03
 Linear search not attempted -- first point.
 Iteration  1 RMS(Cart)=  0.12108040 RMS(Int)=  0.00646835
 Iteration  2 RMS(Cart)=  0.01289812 RMS(Int)=  0.00007570
 Iteration  3 RMS(Cart)=  0.00010815 RMS(Int)=  0.00005894
 Iteration  4 RMS(Cart)=  0.00000001 RMS(Int)=  0.00005894
 Variable       Old X    -DE/DX   Delta X   Delta X   Delta X     New X
                                 (Linear)    (Quad)   (Total)
    R1        2.88316   0.00150   0.00000   0.00494   0.00494   2.88810
    R2        2.06791   0.00092   0.00000   0.00264   0.00264   2.07055
    R3        2.07072   0.00002   0.00000   0.00007   0.00007   2.07079
    R4        2.07089  -0.00006   0.00000  -0.00017  -0.00017   2.07073
    R5        2.87594   0.00206   0.00000   0.00673   0.00673   2.88267
    R6        2.07478   0.00083   0.00000   0.00240   0.00240   2.07718
    R7        2.07289   0.00025   0.00000   0.00072   0.00072   2.07360
    R8        2.75534  -0.00694   0.00000  -0.01841  -0.01841   2.73693
    R9        2.06867   0.00025   0.00000   0.00071   0.00071   2.06938
   R10        2.08036   0.00131   0.00000   0.00383   0.00383   2.08419
   R11        2.62600   0.00832   0.00000   0.01737   0.01737   2.64337
   R12        1.91756  -0.00101   0.00000  -0.00221  -0.00221   1.91535
   R13        2.39266  -0.02082   0.00000  -0.02668  -0.02668   2.36598
   R14        2.53573   0.00256   0.00000   0.00448   0.00448   2.54021
   R15        2.59879  -0.01519   0.00000  -0.03008  -0.03008   2.56870
   R16        2.68245   0.00237   0.00000   0.00554   0.00555   2.68800
   R17        2.67939   0.00251   0.00000   0.00588   0.00587   2.68526
   R18        2.62426  -0.00236   0.00000  -0.00495  -0.00492   2.61934
   R19        2.04729  -0.00002   0.00000  -0.00007  -0.00007   2.04722
   R20        2.61864  -0.00133   0.00000  -0.00271  -0.00274   2.61590
   R21        2.05387  -0.00029   0.00000  -0.00081  -0.00081   2.05306
   R22        2.64753   0.00106   0.00000   0.00228   0.00226   2.64980
   R23        2.05425   0.00034   0.00000   0.00097   0.00097   2.05522
   R24        2.64481   0.00253   0.00000   0.00541   0.00543   2.65023
   R25        3.35883  -0.00093   0.00000  -0.00328  -0.00328   3.35555
   R26        2.05474   0.00021   0.00000   0.00060   0.00060   2.05534
   R27        3.41160   0.00171   0.00000   0.00651   0.00651   3.41811
   R28        2.53848   0.00012   0.00000   0.00022   0.00022   2.53870
   R29        2.53642   0.00564   0.00000   0.00985   0.00985   2.54628
   R30        2.53849  -0.00012   0.00000  -0.00022  -0.00022   2.53828
    A1        1.94088   0.00120   0.00000   0.00906   0.00906   1.94994
    A2        1.93673  -0.00001   0.00000  -0.00074  -0.00075   1.93597
    A3        1.93567  -0.00040   0.00000  -0.00354  -0.00355   1.93212
    A4        1.88303  -0.00037   0.00000  -0.00012  -0.00014   1.88289
    A5        1.88293  -0.00026   0.00000  -0.00034  -0.00033   1.88260
    A6        1.88227  -0.00020   0.00000  -0.00462  -0.00464   1.87763
    A7        1.94542   0.00165   0.00000   0.00887   0.00886   1.95428
    A8        1.91660  -0.00108   0.00000  -0.00659  -0.00662   1.90998
    A9        1.91992  -0.00004   0.00000   0.00139   0.00139   1.92131
   A10        1.90619   0.00021   0.00000   0.00474   0.00475   1.91094
   A11        1.90671  -0.00088   0.00000  -0.00433  -0.00434   1.90238
   A12        1.86728   0.00006   0.00000  -0.00460  -0.00460   1.86268
   A13        1.93159  -0.00055   0.00000  -0.00064  -0.00067   1.93092
   A14        1.91300   0.00134   0.00000   0.00751   0.00749   1.92049
   A15        1.91148   0.00040   0.00000   0.00797   0.00792   1.91940
   A16        1.90304  -0.00121   0.00000  -0.01504  -0.01502   1.88801
   A17        1.93589   0.00083   0.00000   0.00964   0.00960   1.94549
   A18        1.86767  -0.00081   0.00000  -0.00978  -0.00978   1.85789
   A19        2.08726  -0.00435   0.00000  -0.01886  -0.01884   2.06842
   A20        1.99758   0.00412   0.00000   0.02396   0.02393   2.02150
   A21        1.97487  -0.00039   0.00000  -0.00781  -0.00773   1.96714
   A22        2.05624  -0.00058   0.00000  -0.00234  -0.00236   2.05388
   A23        1.99089  -0.00786   0.00000  -0.03087  -0.03088   1.96001
   A24        2.23588   0.00844   0.00000   0.03305   0.03303   2.26891
   A25        2.10349  -0.00466   0.00000  -0.01829  -0.01829   2.08521
   A26        2.19621  -0.00041   0.00000  -0.00136  -0.00141   2.19481
   A27        2.05067   0.00094   0.00000   0.00393   0.00388   2.05455
   A28        2.03414  -0.00051   0.00000  -0.00175  -0.00174   2.03240
   A29        2.11809  -0.00033   0.00000  -0.00155  -0.00166   2.11643
   A30        2.08618  -0.00215   0.00000  -0.01305  -0.01326   2.07292
   A31        2.07878   0.00250   0.00000   0.01516   0.01493   2.09371
   A32        2.13193   0.00017   0.00000   0.00079   0.00079   2.13271
   A33        2.06348  -0.00199   0.00000  -0.01197  -0.01198   2.05150
   A34        2.08778   0.00183   0.00000   0.01119   0.01119   2.09897
   A35        2.09574   0.00055   0.00000   0.00229   0.00229   2.09802
   A36        2.09333   0.00064   0.00000   0.00441   0.00441   2.09774
   A37        2.09411  -0.00119   0.00000  -0.00669  -0.00669   2.08742
   A38        2.07937  -0.00108   0.00000  -0.00467  -0.00471   2.07466
   A39        2.10176   0.00034   0.00000   0.00138   0.00128   2.10304
   A40        2.10192   0.00073   0.00000   0.00293   0.00283   2.10476
   A41        2.10704   0.00121   0.00000   0.00500   0.00506   2.11210
   A42        2.08642   0.00013   0.00000   0.00200   0.00195   2.08837
   A43        2.08969  -0.00134   0.00000  -0.00692  -0.00697   2.08272
   A44        1.72148   0.00902   0.00000   0.03538   0.03538   1.75686
   A45        1.97770   0.00163   0.00000   0.00735   0.00731   1.98501
   A46        1.90269   0.00104   0.00000   0.00210   0.00210   1.90479
   A47        1.97771   0.00170   0.00000   0.00772   0.00768   1.98539
   A48        1.87363  -0.00226   0.00000  -0.01072  -0.01072   1.86290
   A49        1.85286  -0.00032   0.00000   0.00208   0.00202   1.85488
   A50        1.87371  -0.00224   0.00000  -0.01050  -0.01051   1.86320
    D1       -3.13558   0.00026   0.00000   0.00234   0.00233  -3.13325
    D2        1.03279  -0.00037   0.00000  -0.00501  -0.00499   1.02780
    D3       -1.01784   0.00022   0.00000   0.00372   0.00372  -1.01412
    D4        1.05146  -0.00007   0.00000  -0.00306  -0.00308   1.04838
    D5       -1.06336  -0.00069   0.00000  -0.01041  -0.01040  -1.07376
    D6       -3.11399  -0.00010   0.00000  -0.00169  -0.00168  -3.11568
    D7       -1.04027   0.00046   0.00000   0.00558   0.00556  -1.03471
    D8        3.12811  -0.00017   0.00000  -0.00177  -0.00176   3.12634
    D9        1.07747   0.00042   0.00000   0.00695   0.00695   1.08442
   D10       -3.12860  -0.00054   0.00000  -0.01786  -0.01789   3.13670
   D11        1.05503   0.00045   0.00000  -0.00362  -0.00362   1.05141
   D12       -0.98899   0.00042   0.00000  -0.00078  -0.00079  -0.98978
   D13       -1.00772  -0.00068   0.00000  -0.01717  -0.01718  -1.02490
   D14       -3.10728   0.00031   0.00000  -0.00293  -0.00291  -3.11019
   D15        1.13188   0.00028   0.00000  -0.00010  -0.00008   1.13180
   D16        1.02918  -0.00098   0.00000  -0.02247  -0.02248   1.00670
   D17       -1.07037   0.00001   0.00000  -0.00823  -0.00821  -1.07859
   D18       -3.11440  -0.00002   0.00000  -0.00539  -0.00538  -3.11978
   D19        3.03896  -0.00005   0.00000   0.02482   0.02477   3.06373
   D20        0.61262   0.00078   0.00000   0.03077   0.03082   0.64344
   D21       -1.13874   0.00049   0.00000   0.02405   0.02402  -1.11471
   D22        2.71812   0.00132   0.00000   0.03001   0.03007   2.74819
   D23        0.91363  -0.00075   0.00000   0.00857   0.00851   0.92214
   D24       -1.51270   0.00008   0.00000   0.01453   0.01456  -1.49814
   D25        0.39984  -0.00066   0.00000  -0.01187  -0.01188   0.38796
   D26       -2.72331  -0.00048   0.00000  -0.00331  -0.00343  -2.72674
   D27        2.83479   0.00027   0.00000  -0.00557  -0.00545   2.82934
   D28       -0.28835   0.00045   0.00000   0.00299   0.00300  -0.28535
   D29       -2.92076  -0.00219   0.00000  -0.07356  -0.07365  -2.99441
   D30        0.24157  -0.00185   0.00000  -0.06338  -0.06329   0.17828
   D31        0.50660  -0.00438   0.00000  -0.17511  -0.17510   0.33150
   D32       -2.70837  -0.00407   0.00000  -0.16142  -0.16143  -2.86981
   D33        3.07551   0.00012   0.00000   0.00314   0.00307   3.07858
   D34       -0.04779  -0.00080   0.00000  -0.03261  -0.03241  -0.08020
   D35        0.00668  -0.00025   0.00000  -0.01064  -0.01065  -0.00397
   D36       -3.11661  -0.00117   0.00000  -0.04639  -0.04613   3.12044
   D37       -3.08775  -0.00002   0.00000  -0.00061  -0.00054  -3.08829
   D38        0.05633  -0.00012   0.00000  -0.00474  -0.00469   0.05164
   D39       -0.01265   0.00026   0.00000   0.01178   0.01183  -0.00083
   D40        3.13143   0.00017   0.00000   0.00764   0.00768   3.13911
   D41       -0.00003   0.00006   0.00000   0.00161   0.00159   0.00156
   D42       -3.13207  -0.00019   0.00000  -0.00818  -0.00827  -3.14034
   D43        3.12334   0.00093   0.00000   0.03693   0.03719  -3.12266
   D44       -0.00870   0.00068   0.00000   0.02714   0.02733   0.01863
   D45        0.01186  -0.00009   0.00000  -0.00378  -0.00381   0.00805
   D46       -3.13357  -0.00005   0.00000  -0.00221  -0.00224  -3.13581
   D47       -3.13225   0.00000   0.00000   0.00037   0.00042  -3.13184
   D48        0.00550   0.00004   0.00000   0.00194   0.00199   0.00748
   D49       -0.00459  -0.00011   0.00000  -0.00576  -0.00576  -0.01036
   D50       -3.12836   0.00040   0.00000   0.01730   0.01729  -3.11107
   D51        3.14084  -0.00015   0.00000  -0.00736  -0.00735   3.13349
   D52        0.01707   0.00036   0.00000   0.01570   0.01570   0.03278
   D53       -0.00120   0.00012   0.00000   0.00682   0.00686   0.00566
   D54        3.13083   0.00038   0.00000   0.01668   0.01674  -3.13562
   D55        3.12257  -0.00039   0.00000  -0.01625  -0.01623   3.10634
   D56       -0.02859  -0.00014   0.00000  -0.00640  -0.00636  -0.03495
   D57       -1.56706  -0.00028   0.00000  -0.01291  -0.01296  -1.58002
   D58        1.59258   0.00025   0.00000   0.01053   0.01058   1.60316
   D59        1.04869   0.00112   0.00000   0.01282   0.01286   1.06155
   D60        3.13388   0.00002   0.00000   0.00543   0.00543   3.13931
   D61       -1.06400  -0.00100   0.00000  -0.00144  -0.00148  -1.06548
         Item               Value     Threshold  Converged?
 Maximum Force            0.020821     0.000450     NO 
 RMS     Force            0.002974     0.000300     NO 
 Maximum Displacement     0.505974     0.001800     NO 
 RMS     Displacement     0.130620     0.001200     NO 
 Predicted change in Energy=-2.674466D-03
 GradGradGradGradGradGradGradGradGradGradGradGradGradGradGradGradGradGrad

                          Input orientation:                          
 ---------------------------------------------------------------------
 Center     Atomic      Atomic             Coordinates (Angstroms)
 Number     Number       Type             X           Y           Z
 ---------------------------------------------------------------------
      1          6           0       -1.649484    1.892357    0.031371
      2          6           0       -0.282152    1.303156    0.376339
      3          6           0        0.857265    2.241534   -0.008565
      4          7           0        2.137325    1.658450    0.336534
      5          6           0        3.302303    2.339938   -0.030985
      6          8           0        3.213762    3.570700   -0.243002
      7          7           0        4.362860    1.520077   -0.130832
      8          6           0        5.602310    2.048658   -0.309892
      9          6           0        5.980580    3.392050   -0.035101
     10          6           0        6.636280    1.176371   -0.744855
     11          6           0        7.944729    1.601797   -0.897160
     12          6           0        8.292663    2.929701   -0.611136
     13          6           0        7.292416    3.814544   -0.182877
     14          1           0       -2.465099    1.218831    0.317139
     15          1           0       -1.732817    2.084258   -1.044287
     16          1           0       -1.802846    2.845150    0.550410
     17          1           0       -0.156719    0.342060   -0.142113
     18          1           0       -0.223261    1.091975    1.451518
     19          1           0        0.758718    3.191119    0.527856
     20          1           0        0.800091    2.482561   -1.083291
     21          1           0        2.214200    0.655745    0.210145
     22          1           0        5.218227    4.094351    0.279899
     23          1           0        6.367484    0.145424   -0.957526
     24          1           0        8.709520    0.907432   -1.237406
     25         16           0        9.959018    3.495608   -0.847892
     26          6           0       10.663255    3.154067    0.782783
     27          9           0       10.631603    1.855121    1.124129
     28          9           0       11.958287    3.526074    0.791373
     29          9           0       10.062282    3.820676    1.782107
     30          1           0        7.552900    4.847666    0.035665
 ---------------------------------------------------------------------
                    Distance matrix (angstroms):
                    1          2          3          4          5
     1  C    0.000000
     2  C    1.528319   0.000000
     3  C    2.531266   1.525443   0.000000
     4  N    3.806279   2.445749   1.448321   0.000000
     5  C    4.972364   3.753551   2.447120   1.398810   0.000000
     6  O    5.152017   4.212690   2.715644   2.269642   1.252025
     7  N    6.026042   4.677650   3.581151   2.278285   1.344219
     8  C    7.261501   5.971061   4.758513   3.546300   2.335094
     9  C    7.776334   6.614724   5.250975   4.232504   2.877521
    10  C    8.352786   7.009839   5.922306   4.652139   3.602624
    11  C    9.643418   8.330219   7.171541   5.937268   4.779878
    12  C   10.016745   8.783405   7.491449   6.356284   5.058468
    13  C    9.148676   7.999617   6.626908   5.611906   4.256587
    14  H    1.095686   2.185377   3.491434   4.623413   5.885660
    15  H    1.095815   2.175484   2.793919   4.131100   5.142430
    16  H    1.095781   2.172685   2.784421   4.120552   5.162926
    17  H    2.159135   1.099196   2.157314   2.687867   3.996086
    18  H    2.165996   1.097304   2.149620   2.671414   4.023037
    19  H    2.780776   2.161197   1.095067   2.070322   2.739824
    20  H    2.755218   2.166279   1.102905   2.117371   2.718226
    21  H    4.060692   2.584285   2.098531   1.013560   2.019559
    22  H    7.216370   6.168811   4.747012   3.927948   2.616367
    23  H    8.264470   6.880203   5.971324   4.675263   3.881972
    24  H   10.482787   9.143901   8.059019   6.799637   5.722370
    25  S   11.751630  10.544531   9.225999   8.121384   6.805495
    26  C   12.400002  11.108240   9.880100   8.667611   7.450412
    27  F   12.329663  10.953259   9.847334   8.532979   7.435588
    28  F   13.726545  12.447568  11.203688  10.007306   8.775491
    29  F   11.997873  10.738780   9.509602   8.340854   7.153825
    30  H    9.665285   8.606256   7.185082   6.292064   4.935658
                    6          7          8          9         10
     6  O    0.000000
     7  N    2.353309   0.000000
     8  C    2.833063   1.359300   0.000000
     9  C    2.780363   2.475978   1.422428   0.000000
    10  C    4.206935   2.379831   1.420976   2.417215   0.000000
    11  C    5.165903   3.663840   2.455911   2.793928   1.384277
    12  C    5.132411   4.202510   2.846926   2.427203   2.415710
    13  C    4.086379   3.721503   2.447641   1.386092   2.776021
    14  H    6.172075   6.849267   8.134179   8.727912   9.163227
    15  H    5.226874   6.189506   7.371885   7.888300   8.423521
    16  H    5.130525   6.343173   7.497390   7.824554   8.699505
    17  H    4.668452   4.670594   6.008914   6.854220   6.870532
    18  H    4.563836   4.870278   6.160769   6.781447   7.203088
    19  H    2.601066   4.026921   5.046525   5.255962   6.342297
    20  H    2.777758   3.811415   4.883413   5.363147   5.990140
    21  H    3.114712   2.340956   3.699991   4.661881   4.553885
    22  H    2.136706   2.743582   2.163384   1.083343   3.402294
    23  H    4.710523   2.567413   2.151098   3.397227   1.086431
    24  H    6.187503   4.526952   3.437650   3.881492   2.147850
    25  S    6.772740   5.977782   4.622122   4.061936   4.053401
    26  C    7.531319   6.572640   5.294246   4.759518   4.739355
    27  F    7.735413   6.401899   5.233322   5.033684   4.462780
    28  F    8.805603   7.909804   6.617703   6.036058   6.017047
    29  F    7.146033   6.437041   5.235252   4.488458   5.011525
    30  H    4.531712   4.612692   3.429090   2.143832   3.863653
                   11         12         13         14         15
    11  C    0.000000
    12  C    1.402212   0.000000
    13  C    2.414945   1.402443   0.000000
    14  H   10.487407  10.932439  10.109245   0.000000
    15  H    9.690682  10.070385   9.229883   1.771633   0.000000
    16  H    9.932603  10.162463   9.176123   1.771413   1.768310
    17  H    8.233499   8.849177   8.218846   2.511625   2.516597
    18  H    8.514239   8.952806   8.158984   2.515700   3.080979
    19  H    7.496357   7.624039   6.601743   3.785144   3.147145
    20  H    7.201128   7.520739   6.688438   3.770899   2.564330
    21  H    5.912707   6.541644   5.993393   4.714271   4.381004
    22  H    3.877126   3.406246   2.143528   8.203871   7.356015
    23  H    2.147643   3.402720   3.862385   8.988409   8.329555
    24  H    1.087573   2.157674   3.401693  11.286527  10.510215
    25  S    2.765195   1.775680   2.766718  12.684624  11.778348
    26  C    3.552764   2.759176   3.568092  13.278390  12.575583
    27  F    3.371805   3.104271   4.086290  13.136959  12.555215
    28  F    4.760529   3.969822   4.775220  14.614456  13.888658
    29  F    4.072582   3.106927   3.396080  12.878315  12.252674
    30  H    3.399906   2.155039   1.087637  10.658704   9.748193
                   16         17         18         19         20
    16  H    0.000000
    17  H    3.074863   0.000000
    18  H    2.526006   1.762516   0.000000
    19  H    2.584921   3.066598   2.494762   0.000000
    20  H    3.094468   2.526470   3.066959   1.760556   0.000000
    21  H    4.587585   2.417383   2.769931   2.940661   2.647629
    22  H    7.136466   6.568701   6.324297   4.556811   4.896537
    23  H    8.735943   6.577902   7.080775   6.552929   6.039362
    24  H   10.837937   8.951509   9.330538   8.458524   8.066217
    25  S   11.862537  10.619375  10.711841   9.307572   9.217788
    26  C   12.472093  11.217605  11.100255   9.907886  10.060574
    27  F   12.486987  10.967252  10.886581   9.980696  10.095792
    28  F   13.780077  12.561159  12.439885  11.207675  11.362598
    29  F   11.968709  10.965007  10.646478   9.408815   9.787198
    30  H    9.581494   8.931423   8.750916   7.010514   7.241976
                   21         22         23         24         25
    21  H    0.000000
    22  H    4.566515   0.000000
    23  H    4.344382   4.294885   0.000000
    24  H    6.659425   4.964655   2.478734   0.000000
    25  S    8.316638   4.909736   4.912725   2.900280   0.000000
    26  C    8.829273   5.548455   5.525781   3.598002   1.808784
    27  F    8.551406   5.918743   5.043715   3.188944   2.651873
    28  F   10.174667   6.783285   6.763470   4.639797   2.585575
    29  F    8.606989   5.079016   5.887665   4.408449   2.652023
    30  H    6.790020   2.465326   4.950023   4.299294   2.897954
                   26         27         28         29         30
    26  C    0.000000
    27  F    1.343421   0.000000
    28  F    1.347431   2.159375   0.000000
    29  F    1.343199   2.149527   2.159439   0.000000
    30  H    3.619499   4.429277   4.661023   3.225178   0.000000
[...]
 9079,-0.00072440,0.00038805,0.00018913,0.00235714,0.00049868,-0.000990
 71,-0.00636233,0.00529419,0.00214001,0.00022976,-0.00323244,-0.0007802
 6,0.01009047,0.00003592,-0.00114676,-0.00773622,-0.00206697,0.00119115
 ,0.00390902,0.01158775,0.00166558,0.01085718,-0.00606477,-0.00294771,-
 0.03110325,-0.01470618,0.00163558,-0.13635579,-0.03712406,0.02284669,-
 0.04378569,-0.01202556,0.00561849,0.00009027,0.00001186,-0.00002618,0.
 00000004,-0.00001272,0.00002544,-0.00001131,-0.00002870,0.00000281,0.0
 0000268,0.00003091,0.00000302,-0.00003052,-0.00000625,-0.00000535,-0.0
 0004599,-0.00005426,-0.00000861,0.00030580,-0.00008463,0.00019069,-0.0
 0008464,-0.00020459,0.00011602,-0.00079815,-0.00070060,-0.00063472,-0.
 00105571,0.00007312,-0.00025835,0.00126137,0.00117561,-0.00013221,0.25
 269240,0.00001502,0.00002780,-0.00001491,0.00001947,-0.00004762,0.0000
 3308,-0.00028163,0.00013931,0.00005299,0.00090079,0.00030412,-0.000363
 81,-0.00211795,0.00119307,0.00075936,0.00028330,-0.00063513,-0.0002204
 5,0.00303001,0.00077858,-0.00015901,-0.00168737,-0.00377856,-0.0001300
 0,0.00418150,0.00264552,-0.00036529,0.00151523,-0.00367382,-0.00363869
 ,-0.02962506,-0.00767975,0.00541739,-0.03331829,-0.05142483,0.00728966
 ,0.00499923,0.00705773,0.00032319,0.00003562,0.00000545,-0.00001071,0.
 00000038,-0.00000514,0.00001056,-0.00000609,-0.00000849,0.00000177,0.0
 0000423,0.00001724,0.00000223,-0.00001099,-0.00000421,-0.00000144,-0.0
 0002759,-0.00001743,-0.00000259,0.00011253,-0.00003064,0.00007483,-0.0
 0001463,-0.00007147,0.00004279,0.00031391,0.00024432,-0.00021789,-0.00
 115701,0.00003992,-0.00048272,-0.00044248,0.00078505,0.00143066,0.0517
 8960,0.09815598,-0.00000731,-0.00001186,0.00000555,-0.00001623,0.00001
 830,-0.00001675,0.00013650,-0.00004946,0.00001468,-0.00034257,-0.00011
 244,0.00025452,0.00066813,-0.00044952,-0.00038524,-0.00013065,0.000371
 61,0.00004163,-0.00127611,0.00024176,-0.00037931,0.00091910,-0.0001653
 7,-0.00128660,0.00078860,-0.00166390,0.00480322,-0.00035315,-0.0020064
 7,0.00425765,-0.00645561,0.00014032,-0.00067712,0.01326599,0.00464411,
 -0.03914257,0.00437795,0.00270770,-0.00270138,-0.00001589,-0.00000264,
 0.00000485,0.00000035,0.00000212,-0.00000418,0.00000152,0.00000526,-0.
 00000035,0.00000003,-0.00000250,-0.00000039,0.00000601,0.00000237,0.00
 000091,0.00000673,0.00000103,0.00000128,-0.00004217,-0.00000044,-0.000
 04077,0.00003128,0.00002657,0.00000714,0.00014883,-0.00014552,0.000986
 16,-0.00025629,-0.00034016,0.00080183,-0.00047655,0.00075841,-0.002102
 43,0.01156513,-0.04956241,0.22976809,0.00001593,0.00003203,-0.00002351
 ,0.00001699,-0.00004675,0.00002833,-0.00036156,0.00018031,-0.00000387,
 0.00098134,0.00032395,-0.00019404,-0.00161495,-0.00011813,0.00017144,0
 .00075480,-0.00005897,-0.00005671,0.00140848,0.00015482,-0.00018794,-0
 .00108630,-0.00045966,-0.00044222,-0.00069109,-0.00031051,0.00174790,-
 0.00077490,-0.00011004,0.00089738,0.00075993,0.00159425,-0.00082863,-0
 .01902255,0.00107837,-0.01437699,0.00002309,-0.00144861,-0.00245885,0.
 00006077,0.00001579,-0.00002353,-0.00000034,-0.00000914,0.00002365,-0.
 00001171,-0.00001392,0.00000352,0.00000833,0.00002624,0.00000338,-0.00
 001350,-0.00000723,0.00000205,-0.00005867,-0.00003288,-0.00000479,0.00
 011565,-0.00003007,0.00009064,-0.00005427,-0.00005451,0.00006089,-0.00
 016652,-0.00007823,0.00033979,0.00012936,0.00007931,0.00026370,-0.0000
 2895,-0.00029856,-0.00040711,-0.03868767,-0.00003782,-0.00849616,0.502
 42776,-0.00001053,-0.00000627,0.00001100,-0.00000725,0.00003809,-0.000
 01757,0.00010868,-0.00004597,-0.00003793,-0.00047106,-0.00027539,0.000
 21009,0.00092003,-0.00004879,-0.00035355,-0.00019071,-0.00007242,0.000
 06233,-0.00144869,-0.00059447,0.00026513,0.00100642,0.00111202,-0.0001
 8073,-0.00052876,-0.00105059,-0.00097556,-0.00112455,-0.00212259,0.001
 75809,-0.00407410,0.00214301,-0.00059746,0.00066878,-0.00335684,-0.008
 49506,0.00120746,-0.00003159,0.00091998,-0.00002014,-0.00000366,0.0000
 0725,0.00000322,0.00000364,-0.00000173,0.00000678,-0.00000873,-0.00000
 594,-0.00000651,-0.00002851,-0.00001150,0.00000403,0.00001003,0.000009
 28,0.00002526,0.00000543,-0.00000288,-0.00004353,0.00001494,-0.0000222
 5,-0.00001362,0.00005700,-0.00006384,0.00000182,-0.00006540,-0.0000400
 5,-0.00038745,-0.00028436,0.00015548,0.00003546,-0.00046268,-0.0024011
 1,0.00489185,-0.03709374,0.02984603,0.00263097,0.50294737,0.00004710,0
 .00008181,-0.00004574,0.00006513,-0.00011042,0.00013159,-0.00068661,0.
 00038930,0.00015199,0.00227484,0.00068906,-0.00090152,-0.00491004,0.00
 249399,0.00143674,0.00129690,-0.00176123,-0.00075347,0.00691096,0.0001
 5363,-0.00087947,-0.00492488,-0.00177788,0.00064973,0.00295823,0.00064
 484,-0.00178255,0.00236495,0.00071699,-0.00082511,0.00405666,-0.000868
 96,-0.00168158,-0.01437688,-0.00872328,0.00686676,0.00397872,0.0046724
 3,0.00062222,0.00010820,0.00002140,-0.00003037,-0.00001148,-0.00001508
 ,0.00000885,-0.00001407,-0.00003646,0.00001207,0.00000885,0.00003141,-
 0.00000018,-0.00002425,-0.00000433,-0.00004025,-0.00007756,-0.00006713
 ,0.00000945,0.00024226,-0.00006728,0.00014063,-0.00010775,-0.00017377,
 0.00019918,0.00054942,0.00026353,0.00002390,0.00073703,0.00038074,0.00
 009757,-0.00058642,-0.00071655,0.00058252,-0.02360552,0.02553877,-0.12
 956063,-0.00999689,-0.00240022,0.50398433,-0.00000560,-0.00001134,0.00
 000709,-0.00000735,0.00001664,-0.00001240,0.00011647,-0.00005881,-0.00
 000714,-0.00033242,-0.00009733,0.00009362,0.00064656,-0.00018218,-0.00
 013386,-0.00020178,0.00014667,0.00004721,-0.00073950,-0.00003002,0.000
 05688,0.00057168,0.00035312,0.00013729,-0.00022874,-0.00025548,-0.0001
 0680,0.00012021,0.00010990,-0.00012338,-0.00013659,0.00027719,-0.00007
 603,0.00170291,-0.00033257,0.00005827,0.00053858,0.00003542,0.00007988
 ,-0.00001794,-0.00000403,0.00000633,0.00000016,0.00000265,-0.00000600,
 0.00000300,0.00000468,-0.00000104,-0.00000194,-0.00000699,-0.00000070,
 0.00000449,0.00000180,0.00000048,0.00001530,0.00001008,0.00000114,-0.0
 0004041,0.00001061,-0.00002849,0.00001720,0.00002184,-0.00001903,0.000
 02633,-0.00000255,-0.00001335,-0.00003081,-0.00002868,-0.00003642,0.00
 001721,0.00007302,0.00025311,0.00456241,0.00864745,-0.00769442,-0.0711
 2842,-0.00178316,-0.00232950,0.07681515,0.00001327,0.00001648,-0.00001
 279,0.00001339,-0.00003972,0.00002883,-0.00016625,0.00008513,0.0000480
 4,0.00061600,0.00025446,-0.00026698,-0.00136085,0.00054498,0.00037907,
 0.00028379,-0.00029589,-0.00013414,0.00201664,0.00026694,-0.00024498,-
 0.00158985,-0.00032896,0.00020335,0.00034254,0.00066732,0.00010801,0.0
 0181362,0.00066010,-0.00034787,0.00033582,-0.00164296,-0.00168428,-0.0
 0166096,0.00149638,-0.00174070,0.00017546,0.00069397,0.00015760,0.0000
 2777,0.00000520,-0.00000876,-0.00000354,-0.00000451,0.00000226,-0.0000
 0608,-0.00000016,0.00000527,0.00000513,0.00002162,0.00000691,-0.000006
 19,-0.00000640,-0.00001120,-0.00002555,-0.00001330,0.00000326,0.000063
 84,-0.00001958,0.00003277,-0.00000548,-0.00006523,0.00006943,0.0000783
 7,0.00005411,0.00001896,0.00025916,0.00011831,0.00014720,-0.00017785,0
 .00030618,0.00105345,-0.00038834,-0.01831692,0.01991942,-0.00140597,-0
 .26280001,0.06014897,0.01997285,0.38880629,-0.00001588,-0.00002577,0.0
 0001564,-0.00002033,0.00004114,-0.00004187,0.00022721,-0.00012599,-0.0
 0005564,-0.00077003,-0.00024615,0.00031165,0.00169978,-0.00083436,-0.0
 0047289,-0.00039599,0.00055225,0.00022699,-0.00238948,-0.00009675,0.00
 029466,0.00178205,0.00045246,-0.00011801,-0.00074456,-0.00064149,0.000
 22593,-0.00133644,-0.00002688,0.00011722,-0.00003653,0.00093530,0.0009
 4364,0.00173346,-0.00082763,0.00138832,-0.00009014,-0.00095261,-0.0002
 3644,-0.00003630,-0.00000710,0.00001060,0.00000392,0.00000525,-0.00000
 348,0.00000552,0.00000917,-0.00000462,-0.00000378,-0.00001496,-0.00000
 227,0.00000823,0.00000319,0.00001327,0.00002737,0.00002155,-0.00000318
 ,-0.00008275,0.00002388,-0.00004592,0.00002963,0.00006611,-0.00007244,
 -0.00009922,-0.00003686,-0.00002817,-0.00019235,-0.00008211,-0.0001639
 5,0.00018289,0.00011070,-0.00012248,-0.00282436,0.03314230,-0.01935209
 ,-0.00135716,0.07203158,-0.09480679,-0.00896243,-0.06735421,0.08983373
 ,-0.00003094,-0.00006116,0.00003740,-0.00004385,0.00009009,-0.00006881
 ,0.00060199,-0.00031383,-0.00006414,-0.00178843,-0.00049560,0.00061144
 ,0.00390440,-0.00192876,-0.00106102,-0.00089560,0.00133588,0.00036829,
 -0.00525382,-0.00010951,0.00044061,0.00395567,0.00151637,-0.00021557,-
 0.00171115,-0.00187960,0.00013818,-0.00222165,0.00038803,0.00085631,0.
 00055040,0.00279191,-0.00039148,-0.00343785,-0.00003691,-0.00574338,0.
 00227891,-0.00133199,-0.00156799,-0.00008658,-0.00001696,0.00002852,0.
 00000041,0.00001220,-0.00002818,0.00001330,0.00002554,-0.00000374,-0.0
 0000757,-0.00003041,-0.00000154,0.00002360,0.00000729,0.00000284,0.000
 06644,0.00004852,0.00000633,-0.00022081,0.00005599,-0.00015536,0.00008
 473,0.00012559,-0.00009454,-0.00003194,-0.00010810,0.00020931,-0.00015
 586,-0.00020273,0.00018793,0.00010391,0.00007233,-0.00019551,-0.025498
 16,-0.00712360,-0.00511238,-0.26029302,-0.04703786,-0.03124106,-0.0188
 1583,-0.04128721,0.00578300,0.37027178,-0.00000275,-0.00000823,0.00000
 373,-0.00000519,0.00000703,-0.00000762,0.00007522,-0.00003976,-0.00000
 241,-0.00019407,-0.00003181,0.00005691,0.00043700,-0.00026811,-0.00010
 155,-0.00011157,0.00020279,0.00004160,-0.00054545,0.00006453,0.0000256
 5,0.00042581,0.00001976,-0.00002083,-0.00011897,-0.00000485,0.00013931
 ,-0.00026316,0.00048352,-0.00004847,0.00120988,0.00003135,-0.00003661,
 -0.00163034,0.00280039,0.00083906,-0.00022960,-0.00039544,-0.00037788,
 -0.00000983,-0.00000198,0.00000316,-0.00000059,0.00000120,-0.00000434,
 0.00000096,0.00000542,0.00000059,-0.00000018,0.00000009,0.00000163,0.0
 0000294,-0.00000047,-0.00000148,0.00000635,0.00000649,0.00000166,-0.00
 002676,0.00000602,-0.00002087,0.00001476,0.00000896,-0.00000303,-0.000
 02004,-0.00001858,0.00003383,0.00007786,0.00001944,0.00000351,0.000024
 33,0.00007441,0.00026796,0.00001258,0.00402624,-0.00077171,-0.04495628
 ,-0.08134261,-0.00554833,-0.05735506,-0.04037381,0.00325579,0.08507226
 ,0.10139702,-0.00001992,-0.00003673,0.00002147,-0.00002846,0.00005356,
 -0.00004951,0.00033126,-0.00018059,-0.00005862,-0.00104770,-0.00029764
 ,0.00040370,0.00235900,-0.00129190,-0.00070534,-0.00052050,0.00087636,
 0.00028617,-0.00333079,-0.00007122,0.00032618,0.00250724,0.00093439,-0
 .00026685,-0.00137892,-0.00087538,0.00058399,-0.00155092,-0.00006027,0
 .00068784,-0.00022625,0.00186944,-0.00002737,-0.00132870,0.00234951,-0
 .00451779,0.00034127,-0.00183858,-0.00122966,-0.00004847,-0.00000890,0
 .00001442,0.00000227,0.00000673,-0.00001013,0.00000680,0.00001531,-0.0
 0000350,-0.00000375,-0.00001571,-0.00000049,0.00001267,0.00000309,0.00
 000918,0.00003470,0.00002833,0.00000022,-0.00012268,0.00003233,-0.0000
 7884,0.00004733,0.00007933,-0.00007068,-0.00014776,-0.00012386,0.00013
 261,-0.00018638,-0.00014776,0.00011154,0.00015895,0.00001353,-0.000354
 30,-0.02740232,-0.00747526,0.00150907,-0.03772126,-0.00757354,-0.08132
 599,0.01395053,0.01037479,0.01165580,0.00829896,0.00399366,0.07251405,
 -0.00000096,-0.00000155,0.00000337,0.00000018,0.00000594,0.00000514,0.
 00004674,-0.00001793,0.00001775,-0.00009483,-0.00004803,-0.00000840,0.
 00005883,0.00027579,0.00006308,-0.00011411,-0.00015728,-0.00007567,0.0
 0013420,-0.00004041,-0.00007022,0.00005836,-0.00026468,0.00006556,0.00
 075790,0.00021672,-0.00028102,-0.00005117,-0.00009901,-0.00002953,0.00
 055042,0.00010067,0.00005457,0.00091091,0.00050761,-0.00068591,-0.0001
 6050,0.00065741,-0.00035197,-0.00000819,-0.00000253,0.00000424,-0.0000
 0115,0.00000134,-0.00000647,0.00000260,-0.00000064,-0.00000009,-0.0000
 0224,-0.00000677,-0.00000187,0.00000213,0.00000271,-0.00000474,0.00001
 095,0.00000202,0.00000307,-0.00001439,0.00000179,-0.00001606,0.0000046
 9,0.00000367,0.00000091,0.00010297,0.00001009,0.00001825,0.00002737,-0
 .00000925,-0.00000809,0.00001956,-0.00012578,-0.00005986,0.00445656,-0
 .00090953,-0.00108567,-0.11217305,0.04503627,0.06771651,0.00646467,0.0
 2234175,0.00769152,-0.06149690,0.01817087,0.04696883,0.16042792,-0.000
 00308,-0.00000932,0.00000173,-0.00000668,0.00000368,-0.00001255,0.0000
 5396,-0.00003476,-0.00001454,-0.00016359,-0.00000406,0.00006564,0.0004
 5309,-0.00046183,-0.00017261,-0.00007331,0.00033346,0.00011912,-0.0006
 7215,0.00011236,0.00010170,0.00048136,0.00015183,-0.00001322,-0.000521
 07,-0.00001784,0.00018339,-0.00011108,0.00034810,-0.00007945,0.0002111
 1,-0.00000979,0.00004266,0.00056448,0.00076083,0.00098260,0.00017983,-
 0.00090448,0.00009096,-0.00000654,-0.00000086,0.00000087,0.00000052,0.
 00000065,0.00000052,-0.00000054,0.00000714,0.00000031,0.00000105,0.000
 00491,0.00000336,0.00000194,-0.00000266,0.00000307,0.00000017,0.000006
 64,-0.00000044,-0.00002020,0.00000551,-0.00001011,0.00001542,0.0000080
 3,-0.00000745,-0.00008610,-0.00000913,-0.00002488,-0.00000446,0.000014
 40,0.00000064,0.00001812,0.00014840,0.00029327,0.00179738,0.00650556,-
 0.00441074,0.04229265,-0.11587098,-0.07327576,0.03050174,-0.07041478,-
 0.03936853,0.01038350,0.01329794,-0.00092403,-0.08517812,0.16563817,-0
 .00002102,-0.00003940,0.00001911,-0.00003050,0.00004693,-0.00006258,0.
 00030565,-0.00018095,-0.00008353,-0.00103485,-0.00026991,0.00041858,0.
 00241015,-0.00151180,-0.00080400,-0.00050338,0.00103312,0.00044037,-0.
 00344899,-0.00004023,0.00051558,0.00240048,0.00120800,-0.00005774,-0.0
 0201580,-0.00094080,0.00005238,-0.00116936,0.00029191,0.00046009,-0.00
 063486,0.00087052,0.00034691,0.00161642,0.00133873,0.00315980,0.001051
 65,-0.00218505,0.00051869,-0.00004659,-0.00000850,0.00001178,0.0000051
 7,0.00000621,-0.00000151,0.00000487,0.00001939,-0.00000474,-0.00000269
 ,-0.00000873,0.00000254,0.00001081,-0.00000064,0.00001972,0.00002816,0
 .00003225,-0.00000387,-0.00011329,0.00003288,-0.00005905,0.00005140,0.
 00007965,-0.00008989,-0.00022711,-0.00002170,-0.00021112,-0.00020080,-
 0.00011382,-0.00004067,0.00013799,0.00041914,-0.00015746,0.01382770,-0
 .01178199,-0.04423736,0.07388975,-0.08279314,-0.20379764,0.00481231,-0
 .02098690,0.01085478,0.02912326,-0.00164617,0.00082033,-0.12030929,0.1
 1670062,0.23239807,-0.00000450,-0.00001048,0.00000565,-0.00001520,0.00
 001159,-0.00001358,0.00004620,-0.00004123,0.00003514,-0.00018401,0.000
 09629,0.00001361,0.00059016,-0.00040299,-0.00009798,-0.00013071,0.0004
 5100,0.00009148,-0.00017857,-0.00165046,-0.00053331,-0.00542051,-0.000
 33766,0.00160957,-0.00267308,-0.02901124,-0.00667285,-0.00078830,0.000
 02324,0.00000188,-0.00334006,0.00265555,0.00177891,0.00692774,0.021588
 01,0.00497566,-0.07245067,-0.06484508,-0.01241160,-0.00000737,0.000000
 67,0.00000094,-0.00000019,0.00000028,-0.00000178,-0.00000059,0.0000048
 6,0.00000109,0.00000179,0.00000224,0.00000136,0.00000169,-0.00000080,0
 .00000063,-0.00000404,0.00000895,0.00000290,-0.00001594,0.00000079,-0.
 00001577,0.00006457,0.00003760,0.00000635,0.00091884,0.00052923,-0.000
 53559,0.00010567,-0.00004645,-0.00011569,0.00054852,0.00123624,0.00031
 705,0.00136356,0.00091177,-0.00015497,-0.00053497,0.00060088,-0.000422
 85,0.00006502,-0.00027528,0.00018314,0.00013440,-0.00006100,0.00004497
 ,0.00008049,-0.00010940,0.00008275,0.07490006,-0.00000656,-0.00001369,
 0.00000835,-0.00001308,0.00001677,-0.00001946,0.00010704,-0.00006383,-
 0.00000398,-0.00034785,-0.00003531,0.00009875,0.00081082,-0.00042547,-
 0.00025170,-0.00022449,0.00036704,0.00008283,-0.00073621,-0.00065949,0
 .00021825,-0.00105275,0.00244641,-0.00158484,-0.00083529,-0.00468977,-
 0.00248444,0.00001667,0.00072952,0.00047290,0.00427196,-0.00034099,-0.
 00196934,-0.00854795,-0.01644161,-0.00388577,-0.06161897,-0.30900136,-
 0.06254560,-0.00001531,-0.00000186,0.00000392,0.00000042,0.00000170,-0
 .00000366,0.00000132,0.00000640,-0.00000026,-0.00000036,-0.00000242,0.
 00000125,0.00000386,-0.00000002,0.00000257,0.00000748,0.00001141,0.000
 00099,-0.00003969,0.00000860,-0.00002900,0.00004306,0.00002300,-0.0000
 0264,0.00006163,0.00052279,0.00148895,-0.00004933,-0.00012745,0.000162
 44,-0.00022571,-0.00092705,-0.00044027,-0.00084031,0.00086184,0.001010
 14,0.00106864,-0.00076593,-0.00068020,-0.00003747,0.00032477,-0.000009
 27,0.00003872,0.00003305,0.00029101,-0.00047314,0.00039286,0.00045037,
 0.06863288,0.32775010,-0.00000084,-0.00000308,0.00000161,-0.00000532,0
 .00000290,-0.00000226,0.00003206,-0.00002631,0.00003585,-0.00007275,-0
 .00004865,0.00000918,0.00018112,-0.00014782,0.00015764,-0.00008054,0.0
 0003783,0.00003673,-0.00033929,0.00033478,-0.00102238,0.00151537,-0.00
 145963,0.00828785,0.00052352,0.00109858,0.00514490,0.00006300,0.000448
 94,-0.00085234,0.00207632,-0.00197491,0.00432423,-0.00236939,-0.007172
 49,0.00062736,-0.01152307,-0.06241479,-0.05195542,-0.00000289,0.000000
 35,0.00000046,-0.00000133,-0.00000035,-0.00000318,0.00000052,0.0000008
 1,0.00000138,-0.00000024,-0.00000120,-0.00000066,0.00000131,0.00000215
 ,-0.00000333,0.00000478,0.00000527,0.00000337,-0.00000870,0.00000177,-
 0.00001215,-0.00001688,0.00003059,-0.00003383,-0.00063674,0.00134589,-
 0.00469736,-0.00011423,0.00015911,-0.00066993,-0.00008402,-0.00057521,
 0.00059831,-0.00030309,0.00030758,-0.00256940,-0.00094279,0.00069783,0
 .00151375,0.00004684,0.00008521,-0.00036198,-0.00014768,-0.00007672,-0
 .00037750,0.00038207,-0.00027617,-0.00042754,0.01182288,0.06961773,0.0
 4224665\\-0.00000322,0.00000199,0.00000246,0.00000490,0.00000020,-0.00
 000142,-0.00000542,0.00000031,-0.00000037,0.00000788,0.00000544,-0.000
 00403,-0.00000089,-0.00000666,-0.00000312,-0.00000005,0.00000326,0.000
 00325,-0.00000456,0.00000077,0.00000419,0.00000139,0.00000673,-0.00000
 681,-0.00000838,-0.00001077,0.00000121,-0.00000013,-0.00000134,0.00000
 207,0.00000153,-0.00000261,0.00000084,-0.00001054,-0.00000186,-0.00000
 127,0.00000951,0.00000263,-0.00000136,-0.00000072,0.00000021,0.0000004
 8,0.00000088,0.00000083,0.00000006,0.00000008,0.00000021,0.00000040,-0
 .00000011,-0.00000002,0.00000147,-0.00000052,0.00000163,0.00000119,0.0
 0000138,0.00000181,0.00000105,0.00000269,-0.00000063,0.00000091,0.0000
 0029,-0.00000252,0.00000293,0.00000090,0.00000090,-0.00000080,-0.00000
 130,0.00000029,0.00000037,0.00000021,0.00000050,-0.00000039,0.00000248
 ,0.00000093,-0.00000176,-0.00000084,0.00001488,0.00000365,0.00000131,-
 0.00000777,0.00000157,-0.00000115,-0.00000324,-0.00000075,0.00000344,-
 0.00000524,-0.00000535,-0.00000104,-0.00000085,-0.00000067\\\@


     ON THE SURVIVAL OF THE FITTEST -
 "STRONG REPRESENTATIVES FROM EACH PAST ERA THRIVE TODAY,
 SUCH AS PROGRAMMING IN THE THIRTY YEAR OLD LANGUAGE KNOWN
 AS FORTRAN, AND EVEN IN THE ANCIENT SCRIPT KNOWN AS DIRECT
 MACHINE CODE. SOME PEOPLE MIGHT LOOK ON SUCH RELICS AS LIVING
 FOSSILS; OTHERS WOULD POINT OUT THAT EVEN A VERY OLD SPECIES
 MIGHT STILL BE FILLING A PARTICULAR ECOLOGICAL NICHE."
     -- ALAN KAY, SCI.AM. SEPTEMBER 1984
 Job cpu time:       0 days  2 hours 53 minutes 59.4 seconds.
 File lengths (MBytes):  RWF=    456 Int=      0 D2E=      0 Chk=     11 Scr=      1
 Normal termination of Gaussian 09 at Wed Oct 31 13:56:55 2018.
WARNING: pbs_rusage is deprecated and values produced may not be accurate


=============================================================================
                                     Resource usage:
                                       CPU time:              07:22:53
   JobId:    1874010.r-man2            Elapsed time:          01:51:12
   Project:             q95            Requested time:        36:00:00
   Service Units:      7.41 
                                       Max physical memory:      671MB
                                       Max virtual memory:      1271MB
                                       Requested memory:           0MB

                                       Number of cpus:               4

                                       Max jobfs disk use:       0.4GB
                                       Requested jobfs:         16.0GB
=============================================================================

