 Entering Gaussian System, Link 0=/apps/gaussian/g09e01/g09/g09
 AtFile(1): /home/507/hio507/Basis/6-31pGd.gbs
 Initial command:
 /apps/gaussian/g09e01/g09/l1.exe "/jobfs/local/1827621.r-man2/Gau-56415.inp" -scrdir="/jobfs/local/1827621.r-man2/"
 Entering Link 1 = /apps/gaussian/g09e01/g09/l1.exe PID=     56416.
  
 Copyright (c) 1988,1990,1992,1993,1995,1998,2003,2009,2015,
            Gaussian, Inc.  All Rights Reserved.
  
 This is part of the Gaussian(R) 09 program.  It is based on
 the Gaussian(R) 03 system (copyright 2003, Gaussian, Inc.),
 the Gaussian(R) 98 system (copyright 1998, Gaussian, Inc.),
 the Gaussian(R) 94 system (copyright 1995, Gaussian, Inc.),
 the Gaussian 92(TM) system (copyright 1992, Gaussian, Inc.),
 the Gaussian 90(TM) system (copyright 1990, Gaussian, Inc.),
 the Gaussian 88(TM) system (copyright 1988, Gaussian, Inc.),
 the Gaussian 86(TM) system (copyright 1986, Carnegie Mellon
 University), and the Gaussian 82(TM) system (copyright 1983,
 Carnegie Mellon University). Gaussian is a federally registered
 trademark of Gaussian, Inc.
  
 This software contains proprietary and confidential information,
 including trade secrets, belonging to Gaussian, Inc.
  
 This software is provided under written license and may be
 used, copied, transmitted, or stored only in accord with that
 written license.
  
 The following legend is applicable only to US Government
 contracts under FAR:
  
                    RESTRICTED RIGHTS LEGEND
  
 Use, reproduction and disclosure by the US Government is
 subject to restrictions as set forth in subparagraphs (a)
 and (c) of the Commercial Computer Software - Restricted
 Rights clause in FAR 52.227-19.
  
 Gaussian, Inc.
 340 Quinnipiac St., Bldg. 40, Wallingford CT 06492
  
  
 ---------------------------------------------------------------
 Warning -- This program may not be used in any manner that
 competes with the business of Gaussian, Inc. or will provide
 assistance to any competitor of Gaussian, Inc.  The licensee
 of this program is prohibited from giving any competitor of
 Gaussian, Inc. access to this program.  By using this program,
 the user acknowledges that Gaussian, Inc. is engaged in the
 business of creating and licensing software in the field of
 computational chemistry and represents and warrants to the
 licensee that it is not a competitor of Gaussian, Inc. and that
 it will not use this program in any manner prohibited above.
 ---------------------------------------------------------------
  

 Cite this work as:
 Gaussian 09, Revision E.01,
 M. J. Frisch, G. W. Trucks, H. B. Schlegel, G. E. Scuseria, 
 M. A. Robb, J. R. Cheeseman, G. Scalmani, V. Barone, B. Mennucci, 
 G. A. Petersson, H. Nakatsuji, M. Caricato, X. Li, H. P. Hratchian, 
 A. F. Izmaylov, J. Bloino, G. Zheng, J. L. Sonnenberg, M. Hada, 
 M. Ehara, K. Toyota, R. Fukuda, J. Hasegawa, M. Ishida, T. Nakajima, 
 Y. Honda, O. Kitao, H. Nakai, T. Vreven, J. A. Montgomery, Jr., 
 J. E. Peralta, F. Ogliaro, M. Bearpark, J. J. Heyd, E. Brothers, 
 K. N. Kudin, V. N. Staroverov, T. Keith, R. Kobayashi, J. Normand, 
 K. Raghavachari, A. Rendell, J. C. Burant, S. S. Iyengar, J. Tomasi, 
 M. Cossi, N. Rega, J. M. Millam, M. Klene, J. E. Knox, J. B. Cross, 
 V. Bakken, C. Adamo, J. Jaramillo, R. Gomperts, R. E. Stratmann, 
 O. Yazyev, A. J. Austin, R. Cammi, C. Pomelli, J. W. Ochterski, 
 R. L. Martin, K. Morokuma, V. G. Zakrzewski, G. A. Voth, 
 P. Salvador, J. J. Dannenberg, S. Dapprich, A. D. Daniels, 
 O. Farkas, J. B. Foresman, J. V. Ortiz, J. Cioslowski, 
 and D. J. Fox, Gaussian, Inc., Wallingford CT, 2013.
 
 ******************************************
 Gaussian 09:  ES64L-G09RevE.01 30-Nov-2015
                30-Oct-2018 
 ******************************************
 %chk=4SulfOxyCf3.M062X_6-31pGd_opt_water.chk
 %mem=196608000
 %nproc=4
 Will use up to    4 processors via shared memory.
 ----------------------------------------------------------------------
 # M062X/Gen 6D SCF=Tight INT(grid=ultrafine) OPT IOP(2/17=4) SCRF=(SMD
 ,Solvent=h2o) maxdisk=2684354560
 ----------------------------------------------------------------------
 1/14=-1,18=20,19=15,26=4,38=1/1,3;
 2/9=110,12=2,17=4,18=5,40=1/2;
 3/5=7,8=2,11=2,16=1,25=1,30=1,70=32201,71=1,72=1,74=-55,75=-5/1,2,3;
 4//1;
 5/5=2,32=2,38=5,53=1/2;
 6/7=2,8=2,9=2,10=2,28=1/1;
 7//1,2,3,16;
 1/14=-1,18=20,19=15,26=4/3(2);
 2/9=110,17=4/2;
 99//99;
 2/9=110,17=4/2;
 3/5=7,6=1,8=2,11=2,16=1,25=1,30=1,70=32205,71=1,72=1,74=-55,75=-5,82=7/1,2,3;
 4/5=5,16=3,69=1/1;
 5/5=2,32=2,38=5,53=1/2;
 7//1,2,3,16;
 1/14=-1,18=20,19=15,26=4/3(-5);
 2/9=110,17=4/2;
 6/7=2,8=2,9=2,10=2,19=2,28=1/1;
 99/9=1/99;
 -----------------------------------
 4SulfOxyCf3.M062X_6-31pGd_opt_water
 -----------------------------------
 Symbolic Z-matrix:
 Charge =  0 Multiplicity = 1
 C                    -2.11712   1.94256  -0.02386 
 C                    -0.79202   1.19505   0.09313 
 C                     0.39854   2.1541   -0.0209 
 N                     1.65725   1.43652   0.08472 
 C                     2.8588    2.07549   0.00505 
 O                     2.8813    3.28517  -0.15698 
 N                     4.01518   1.34927   0.10388 
 C                     5.3705    1.82978   0.03765 
 C                     5.73374   3.18851  -0.1322 
 C                     6.40672   0.88121   0.14803 
 C                     7.74908   1.26289   0.08969 
 C                     8.09037   2.60698  -0.08084 
 C                     7.07991   3.56437  -0.18937 
 H                    -2.95886   1.22338   0.06102 
 H                    -2.1855    2.45528  -1.00704 
 H                    -2.20892   2.69546   0.78774 
 H                    -0.73457   0.43561  -0.71695 
 H                    -0.75628   0.6744    1.07486 
 H                     0.33855   2.91147   0.79176 
 H                     0.35532   2.67336  -1.00384 
 H                     1.64084   0.41334   0.22043 
 H                     3.90395   0.33184   0.23706 
 H                     5.02039   3.98636  -0.22433 
 H                     6.17379  -0.16823   0.27964 
 H                     8.51864   0.50722   0.17795 
 S                     9.80958   3.11994  -0.16022 
 O                     10.65643   1.87293  -0.46005 
 O                     10.27371   3.38393   1.28004 
 H                     7.33533   4.60837  -0.32006 
 C                     10.44619   4.4613   -1.20643 
 F                     11.82071   4.53299  -1.08202 
 F                     10.12103   4.21033  -2.52553 
 F                     9.88968   5.66226  -0.81047 
 

 GradGradGradGradGradGradGradGradGradGradGradGradGradGradGradGradGradGrad
 Berny optimization.
 Initialization pass.
                           ----------------------------
                           !    Initial Parameters    !
                           ! (Angstroms and Degrees)  !
 --------------------------                            --------------------------
 ! Name  Definition              Value          Derivative Info.                !
 --------------------------------------------------------------------------------
 ! R1    R(1,2)                  1.5259         estimate D2E/DX2                !
 ! R2    R(1,14)                 1.1104         estimate D2E/DX2                !
 ! R3    R(1,15)                 1.1109         estimate D2E/DX2                !
 ! R4    R(1,16)                 1.1108         estimate D2E/DX2                !
 ! R5    R(2,3)                  1.533          estimate D2E/DX2                !
 ! R6    R(2,17)                 1.1119         estimate D2E/DX2                !
 ! R7    R(2,18)                 1.1118         estimate D2E/DX2                !
 ! R8    R(3,4)                  1.4527         estimate D2E/DX2                !
 ! R9    R(3,19)                 1.1125         estimate D2E/DX2                !
 ! R10   R(3,20)                 1.1125         estimate D2E/DX2                !
 ! R11   R(4,5)                  1.3632         estimate D2E/DX2                !
 ! R12   R(4,21)                 1.0323         estimate D2E/DX2                !
 ! R13   R(5,6)                  1.2207         estimate D2E/DX2                !
 ! R14   R(5,7)                  1.3691         estimate D2E/DX2                !
 ! R15   R(7,8)                  1.4395         estimate D2E/DX2                !
 ! R16   R(7,22)                 1.0321         estimate D2E/DX2                !
 ! R17   R(8,9)                  1.4167         estimate D2E/DX2                !
 ! R18   R(8,10)                 1.4092         estimate D2E/DX2                !
 ! R19   R(9,13)                 1.3988         estimate D2E/DX2                !
 ! R20   R(9,23)                 1.0742         estimate D2E/DX2                !
 ! R21   R(10,11)                1.3968         estimate D2E/DX2                !
 ! R22   R(10,24)                1.083          estimate D2E/DX2                !
 ! R23   R(11,12)                1.3972         estimate D2E/DX2                !
 ! R24   R(11,25)                1.0822         estimate D2E/DX2                !
 ! R25   R(12,13)                1.3962         estimate D2E/DX2                !
 ! R26   R(12,26)                1.7959         estimate D2E/DX2                !
 ! R27   R(13,29)                1.0827         estimate D2E/DX2                !
 ! R28   R(26,27)                1.5369         estimate D2E/DX2                !
 ! R29   R(26,28)                1.5361         estimate D2E/DX2                !
 ! R30   R(26,30)                1.8163         estimate D2E/DX2                !
 ! R31   R(30,31)                1.382          estimate D2E/DX2                !
 ! R32   R(30,32)                1.3816         estimate D2E/DX2                !
 ! R33   R(30,33)                1.3816         estimate D2E/DX2                !
 ! A1    A(2,1,14)             109.5821         estimate D2E/DX2                !
 ! A2    A(2,1,15)             110.328          estimate D2E/DX2                !
 ! A3    A(2,1,16)             110.3515         estimate D2E/DX2                !
 ! A4    A(14,1,15)            108.6574         estimate D2E/DX2                !
 ! A5    A(14,1,16)            108.6924         estimate D2E/DX2                !
 ! A6    A(15,1,16)            109.1899         estimate D2E/DX2                !
 ! A7    A(1,2,3)              111.2378         estimate D2E/DX2                !
 ! A8    A(1,2,17)             108.8815         estimate D2E/DX2                !
 ! A9    A(1,2,18)             108.9668         estimate D2E/DX2                !
 ! A10   A(3,2,17)             109.4492         estimate D2E/DX2                !
 ! A11   A(3,2,18)             109.4915         estimate D2E/DX2                !
 ! A12   A(17,2,18)            108.7723         estimate D2E/DX2                !
 ! A13   A(2,3,4)              111.0058         estimate D2E/DX2                !
 ! A14   A(2,3,19)             109.2494         estimate D2E/DX2                !
 ! A15   A(2,3,20)             109.1195         estimate D2E/DX2                !
 ! A16   A(4,3,19)             109.2621         estimate D2E/DX2                !
 ! A17   A(4,3,20)             109.1747         estimate D2E/DX2                !
 ! A18   A(19,3,20)            108.9996         estimate D2E/DX2                !
 ! A19   A(3,4,5)              121.8648         estimate D2E/DX2                !
 ! A20   A(3,4,21)             119.0378         estimate D2E/DX2                !
 ! A21   A(5,4,21)             119.097          estimate D2E/DX2                !
 ! A22   A(4,5,6)              119.242          estimate D2E/DX2                !
 ! A23   A(4,5,7)              119.4474         estimate D2E/DX2                !
 ! A24   A(6,5,7)              121.3103         estimate D2E/DX2                !
 ! A25   A(5,7,8)              127.9418         estimate D2E/DX2                !
 ! A26   A(5,7,22)             116.1794         estimate D2E/DX2                !
 ! A27   A(8,7,22)             115.8779         estimate D2E/DX2                !
 ! A28   A(7,8,9)              124.5467         estimate D2E/DX2                !
 ! A29   A(7,8,10)             117.6482         estimate D2E/DX2                !
 ! A30   A(9,8,10)             117.805          estimate D2E/DX2                !
 ! A31   A(8,9,13)             120.6213         estimate D2E/DX2                !
 ! A32   A(8,9,23)             123.5298         estimate D2E/DX2                !
 ! A33   A(13,9,23)            115.8488         estimate D2E/DX2                !
 ! A34   A(8,10,11)            121.2975         estimate D2E/DX2                !
 ! A35   A(8,10,24)            120.2416         estimate D2E/DX2                !
 ! A36   A(11,10,24)           118.4609         estimate D2E/DX2                !
 ! A37   A(10,11,12)           120.1801         estimate D2E/DX2                !
 ! A38   A(10,11,25)           119.2885         estimate D2E/DX2                !
 ! A39   A(12,11,25)           120.5314         estimate D2E/DX2                !
 ! A40   A(11,12,13)           119.4953         estimate D2E/DX2                !
 ! A41   A(11,12,26)           120.9318         estimate D2E/DX2                !
 ! A42   A(13,12,26)           119.5728         estimate D2E/DX2                !
 ! A43   A(9,13,12)            120.6005         estimate D2E/DX2                !
 ! A44   A(9,13,29)            119.4098         estimate D2E/DX2                !
 ! A45   A(12,13,29)           119.9897         estimate D2E/DX2                !
 ! A46   A(12,26,27)           107.7195         estimate D2E/DX2                !
 ! A47   A(12,26,28)           107.2719         estimate D2E/DX2                !
 ! A48   A(12,26,30)           124.8851         estimate D2E/DX2                !
 ! A49   A(27,26,28)            98.9675         estimate D2E/DX2                !
 ! A50   A(27,26,30)           107.0799         estimate D2E/DX2                !
 ! A51   A(28,26,30)           107.8939         estimate D2E/DX2                !
 ! A52   A(26,30,31)           109.5756         estimate D2E/DX2                !
 ! A53   A(26,30,32)           109.47           estimate D2E/DX2                !
 ! A54   A(26,30,33)           109.6143         estimate D2E/DX2                !
 ! A55   A(31,30,32)           109.2357         estimate D2E/DX2                !
 ! A56   A(31,30,33)           109.2525         estimate D2E/DX2                !
 ! A57   A(32,30,33)           109.6785         estimate D2E/DX2                !
 ! D1    D(14,1,2,3)           179.9313         estimate D2E/DX2                !
 ! D2    D(14,1,2,17)           59.2362         estimate D2E/DX2                !
 ! D3    D(14,1,2,18)          -59.2652         estimate D2E/DX2                !
 ! D4    D(15,1,2,3)            60.3349         estimate D2E/DX2                !
 ! D5    D(15,1,2,17)          -60.3601         estimate D2E/DX2                !
 ! D6    D(15,1,2,18)         -178.8615         estimate D2E/DX2                !
 ! D7    D(16,1,2,3)           -60.4147         estimate D2E/DX2                !
 ! D8    D(16,1,2,17)          178.8903         estimate D2E/DX2                !
 ! D9    D(16,1,2,18)           60.3889         estimate D2E/DX2                !
 ! D10   D(1,2,3,4)           -179.727          estimate D2E/DX2                !
 ! D11   D(1,2,3,19)            59.7164         estimate D2E/DX2                !
 ! D12   D(1,2,3,20)           -59.3636         estimate D2E/DX2                !
 ! D13   D(17,2,3,4)           -59.3666         estimate D2E/DX2                !
 ! D14   D(17,2,3,19)         -179.9231         estimate D2E/DX2                !
 ! D15   D(17,2,3,20)           60.9968         estimate D2E/DX2                !
 ! D16   D(18,2,3,4)            59.7783         estimate D2E/DX2                !
 ! D17   D(18,2,3,19)          -60.7783         estimate D2E/DX2                !
 ! D18   D(18,2,3,20)         -179.8583         estimate D2E/DX2                !
 ! D19   D(2,3,4,5)            179.6294         estimate D2E/DX2                !
 ! D20   D(2,3,4,21)            -0.1394         estimate D2E/DX2                !
 ! D21   D(19,3,4,5)           -59.8216         estimate D2E/DX2                !
 ! D22   D(19,3,4,21)          120.4096         estimate D2E/DX2                !
 ! D23   D(20,3,4,5)            59.2986         estimate D2E/DX2                !
 ! D24   D(20,3,4,21)         -120.4701         estimate D2E/DX2                !
 ! D25   D(3,4,5,6)              0.1463         estimate D2E/DX2                !
 ! D26   D(3,4,5,7)           -179.6508         estimate D2E/DX2                !
 ! D27   D(21,4,5,6)           179.9149         estimate D2E/DX2                !
 ! D28   D(21,4,5,7)             0.1178         estimate D2E/DX2                !
 ! D29   D(4,5,7,8)            179.6096         estimate D2E/DX2                !
 ! D30   D(4,5,7,22)            -0.0248         estimate D2E/DX2                !
 ! D31   D(6,5,7,8)             -0.1831         estimate D2E/DX2                !
 ! D32   D(6,5,7,22)          -179.8175         estimate D2E/DX2                !
 ! D33   D(5,7,8,9)              0.7812         estimate D2E/DX2                !
 ! D34   D(5,7,8,10)          -179.1406         estimate D2E/DX2                !
 ! D35   D(22,7,8,9)          -179.5835         estimate D2E/DX2                !
 ! D36   D(22,7,8,10)            0.4948         estimate D2E/DX2                !
 ! D37   D(7,8,9,13)          -179.8145         estimate D2E/DX2                !
 ! D38   D(7,8,9,23)             0.1874         estimate D2E/DX2                !
 ! D39   D(10,8,9,13)            0.1071         estimate D2E/DX2                !
 ! D40   D(10,8,9,23)         -179.891          estimate D2E/DX2                !
 ! D41   D(7,8,10,11)          179.7964         estimate D2E/DX2                !
 ! D42   D(7,8,10,24)           -0.117          estimate D2E/DX2                !
 ! D43   D(9,8,10,11)           -0.1308         estimate D2E/DX2                !
 ! D44   D(9,8,10,24)          179.9559         estimate D2E/DX2                !
 ! D45   D(8,9,13,12)            0.0376         estimate D2E/DX2                !
 ! D46   D(8,9,13,29)          179.9773         estimate D2E/DX2                !
 ! D47   D(23,9,13,12)        -179.9641         estimate D2E/DX2                !
 ! D48   D(23,9,13,29)          -0.0245         estimate D2E/DX2                !
 ! D49   D(8,10,11,12)           0.0093         estimate D2E/DX2                !
 ! D50   D(8,10,11,25)        -179.993          estimate D2E/DX2                !
 ! D51   D(24,10,11,12)        179.9242         estimate D2E/DX2                !
 ! D52   D(24,10,11,25)         -0.0782         estimate D2E/DX2                !
 ! D53   D(10,11,12,13)          0.1384         estimate D2E/DX2                !
 ! D54   D(10,11,12,26)       -179.9391         estimate D2E/DX2                !
 ! D55   D(25,11,12,13)       -179.8592         estimate D2E/DX2                !
 ! D56   D(25,11,12,26)          0.0632         estimate D2E/DX2                !
 ! D57   D(11,12,13,9)          -0.1618         estimate D2E/DX2                !
 ! D58   D(11,12,13,29)        179.899          estimate D2E/DX2                !
 ! D59   D(26,12,13,9)         179.9147         estimate D2E/DX2                !
 ! D60   D(26,12,13,29)         -0.0246         estimate D2E/DX2                !
 ! D61   D(11,12,26,27)         17.6597         estimate D2E/DX2                !
 ! D62   D(11,12,26,28)        -88.0469         estimate D2E/DX2                !
 ! D63   D(11,12,26,30)        144.4332         estimate D2E/DX2                !
 ! D64   D(13,12,26,27)       -162.4179         estimate D2E/DX2                !
 ! D65   D(13,12,26,28)         91.8756         estimate D2E/DX2                !
 ! D66   D(13,12,26,30)        -35.6444         estimate D2E/DX2                !
 ! D67   D(12,26,30,31)       -176.3846         estimate D2E/DX2                !
 ! D68   D(12,26,30,32)        -56.6099         estimate D2E/DX2                !
 ! D69   D(12,26,30,33)         63.7316         estimate D2E/DX2                !
 ! D70   D(27,26,30,31)        -49.3443         estimate D2E/DX2                !
 ! D71   D(27,26,30,32)         70.4305         estimate D2E/DX2                !
 ! D72   D(27,26,30,33)       -169.228          estimate D2E/DX2                !
 ! D73   D(28,26,30,31)         56.3533         estimate D2E/DX2                !
 ! D74   D(28,26,30,32)        176.1281         estimate D2E/DX2                !
 ! D75   D(28,26,30,33)        -63.5305         estimate D2E/DX2                !
 --------------------------------------------------------------------------------
 Trust Radius=3.00D-01 FncErr=1.00D-07 GrdErr=1.00D-06
 Number of steps in this run=    175 maximum allowed number of steps=    198.
 GradGradGradGradGradGradGradGradGradGradGradGradGradGradGradGradGradGrad

                          Input orientation:                          
 ---------------------------------------------------------------------
 Center     Atomic      Atomic             Coordinates (Angstroms)
 Number     Number       Type             X           Y           Z
 ---------------------------------------------------------------------
      1          6           0       -2.117120    1.942560   -0.023860
      2          6           0       -0.792020    1.195050    0.093130
      3          6           0        0.398540    2.154100   -0.020900
      4          7           0        1.657250    1.436520    0.084720
      5          6           0        2.858800    2.075490    0.005050
      6          8           0        2.881300    3.285170   -0.156980
      7          7           0        4.015180    1.349270    0.103880
      8          6           0        5.370500    1.829780    0.037650
      9          6           0        5.733740    3.188510   -0.132200
     10          6           0        6.406720    0.881210    0.148030
     11          6           0        7.749080    1.262890    0.089690
     12          6           0        8.090370    2.606980   -0.080840
     13          6           0        7.079910    3.564370   -0.189370
     14          1           0       -2.958860    1.223380    0.061020
     15          1           0       -2.185500    2.455280   -1.007040
     16          1           0       -2.208920    2.695460    0.787740
     17          1           0       -0.734570    0.435610   -0.716950
     18          1           0       -0.756280    0.674400    1.074860
     19          1           0        0.338550    2.911470    0.791760
     20          1           0        0.355320    2.673360   -1.003840
     21          1           0        1.640840    0.413340    0.220430
     22          1           0        3.903950    0.331840    0.237060
     23          1           0        5.020390    3.986360   -0.224330
     24          1           0        6.173790   -0.168230    0.279640
     25          1           0        8.518640    0.507220    0.177950
     26         16           0        9.809580    3.119940   -0.160220
     27          8           0       10.656430    1.872930   -0.460050
     28          8           0       10.273710    3.383930    1.280040
     29          1           0        7.335330    4.608370   -0.320060
     30          6           0       10.446190    4.461300   -1.206430
     31          9           0       11.820710    4.532990   -1.082020
     32          9           0       10.121030    4.210330   -2.525530
     33          9           0        9.889680    5.662260   -0.810470
 ---------------------------------------------------------------------
                    Distance matrix (angstroms):
                    1          2          3          4          5
     1  C    0.000000
     2  C    1.525892   0.000000
     3  C    2.524540   1.533040   0.000000
     4  N    3.809690   2.461159   1.452731   0.000000
     5  C    4.977779   3.756517   2.461652   1.363214   0.000000
     6  O    5.177309   4.233726   2.731654   2.230297   1.220691
     7  N    6.162257   4.809685   3.707210   2.359621   1.369079
     8  C    7.488722   6.195370   4.982870   3.734313   2.523900
     9  C    7.949851   6.827166   5.435692   4.442330   3.085925
    10  C    8.591383   7.205787   6.143860   4.782242   3.746263
    11  C    9.890235   8.541370   7.405196   6.094306   4.958056
    12  C   10.229250   8.995591   7.705384   6.540827   5.259200
    13  C    9.340397   8.225616   6.830662   5.831647   4.480216
    14  H    1.110383   2.167263   3.484980   4.621089   5.879999
    15  H    1.110946   2.177232   2.782165   4.122686   5.158830
    16  H    1.110847   2.177457   2.783131   4.126310   5.165148
    17  H    2.159332   1.111881   2.172932   2.713908   4.015320
    18  H    2.160394   1.111822   2.173433   2.717781   4.021983
    19  H    2.763031   2.170799   1.112486   2.101036   2.769375
    20  H    2.758150   2.169132   1.112506   2.099942   2.764547
    21  H    4.064536   2.558532   2.152161   1.032271   2.071849
    22  H    6.238252   4.776817   3.959176   2.508224   2.046090
    23  H    7.427069   6.455719   4.975948   4.231773   2.894220
    24  H    8.560767   7.100410   6.231938   4.797119   4.012336
    25  H   10.734073   9.336418   8.287809   6.924663   5.875641
    26  S   11.985449  10.777908   9.461497   8.327928   7.030756
    27  O   12.781185  11.481835  10.271135   9.026210   7.814114
    28  O   12.542343  11.342413  10.036130   8.914291   7.636655
    29  H    9.825634   8.824698   7.364237   6.516523   5.153688
    30  C   12.867761  11.775169  10.377086   9.384126   8.045388
    31  F   14.215947  13.099763  11.715420  10.688561   9.356113
    32  F   12.695411  11.620841  10.248320   9.281325   7.981313
    33  F   12.594371  11.613405  10.149500   9.296835   7.934940
                    6          7          8          9         10
     6  O    0.000000
     7  N    2.258637   0.000000
     8  C    2.890010   1.439503   0.000000
     9  C    2.854185   2.528238   1.416665   0.000000
    10  C    4.277925   2.437313   1.409156   2.419724   0.000000
    11  C    5.276907   3.734926   2.445755   2.796219   1.396787
    12  C    5.253584   4.268856   2.831214   2.427863   2.421847
    13  C    4.208008   3.792787   2.445899   1.398826   2.786821
    14  H    6.197255   6.975308   8.351437   8.914054   9.372232
    15  H    5.204208   6.395767   7.653480   8.001083   8.811250
    16  H    5.210623   6.404632   7.665484   8.010945   8.827796
    17  H    4.637680   4.905982   6.307536   7.054036   7.207272
    18  H    4.643871   4.915799   6.320454   7.063859   7.225673
    19  H    2.739587   4.053549   5.201851   5.480742   6.431099
    20  H    2.733507   4.046583   5.191181   5.472891   6.415454
    21  H    3.150966   2.554807   3.993754   4.957595   4.789338
    22  H    3.150117   1.032121   2.105791   3.412484   2.563902
    23  H    2.252090   2.841199   2.200465   1.074207   3.420895
    24  H    4.791357   2.644484   2.166997   3.410419   1.083006
    25  H    6.293551   4.582105   3.417548   3.878296   2.144987
    26  S    6.930251   6.064659   4.626996   4.076513   4.084897
    27  O    7.908155   6.685689   5.309484   5.105988   4.406053
    28  O    7.531434   6.685237   5.291539   4.758565   4.743276
    29  H    4.649283   4.671708   3.421853   2.148577   3.869515
    30  C    7.727366   7.263576   5.851091   4.998115   5.564973
    31  F    9.073357   8.512857   7.082811   6.305631   6.645285
    32  F    7.673307   7.237463   5.899529   5.101025   5.659246
    33  F    7.429334   7.344908   5.985833   4.883782   5.992343
                   11         12         13         14         15
    11  C    0.000000
    12  C    1.397189   0.000000
    13  C    2.412980   1.396211   0.000000
    14  H   10.708051  11.136425  10.311151   0.000000
    15  H   10.065808  10.318642   9.367310   1.804554   0.000000
    16  H   10.084706  10.336229   9.380411   1.804869   1.810931
    17  H    8.561973   9.110381   8.434072   2.484610   2.503681
    18  H    8.582426   9.128731   8.447253   2.486083   3.090067
    19  H    7.624085   7.806719   6.843598   3.775784   3.132829
    20  H    7.606111   7.790208   6.832084   3.770962   2.550164
    21  H    6.168422   6.819036   6.299239   4.673202   4.507447
    22  H    3.958989   4.775294   4.551683   6.922716   6.567966
    23  H    3.868029   3.368688   2.102598   8.448900   7.408218
    24  H    2.136755   3.391904   3.869538   9.240653   8.855285
    25  H    1.082150   2.158560   3.398681  11.500416  10.944302
    26  S    2.785094   1.795860   2.765767  12.910420  12.043289
    27  O    3.021100   2.695792   3.965568  13.640731  12.866759
    28  O    3.505638   2.687493   3.520239  13.463094  12.701379
    29  H    3.395780   2.152411   1.082707  10.843142   9.785394
    30  C    4.379972   3.202397   3.629151  13.848679  12.791539
    31  F    5.352068   4.315937   4.920390  15.188672  14.159676
    32  F    4.599231   3.559610   3.888871  13.663661  12.523446
    33  F    4.974627   3.620029   3.561140  13.621605  12.495332
                   16         17         18         19         20
    16  H    0.000000
    17  H    3.089453   0.000000
    18  H    2.505451   1.807782   0.000000
    19  H    2.556615   3.091549   2.506647   0.000000
    20  H    3.128190   2.505532   3.090710   1.811396   0.000000
    21  H    4.511160   2.553772   2.558200   2.874549   2.873863
    22  H    6.577015   4.736747   4.747315   4.435568   4.428919
    23  H    7.413072   6.780123   6.784312   4.909934   4.908613
    24  H    8.872920   7.005944   7.026256   6.617918   6.601254
    25  H   10.965436   9.296659   9.319685   8.548161   8.528106
    26  S   12.063298  10.894709  10.915287   9.521036   9.502324
    27  O   12.951863  11.484196  11.577667  10.445298  10.346461
    28  O   12.511291  11.569909  11.359768   9.958365  10.202719
    29  H    9.796895   9.093555   9.104728   7.284953   7.275463
    30  C   12.932390  11.893493  12.043265  10.419171  10.250045
    31  F   14.272457  13.211997  13.331224  11.746505  11.615486
    32  F   12.856915  11.634583  11.990892  10.410973  10.002345
    33  F   12.559152  11.840663  11.906707  10.067675   9.993745
                   21         22         23         24         25
    21  H    0.000000
    22  H    2.264638   0.000000
    23  H    4.938182   3.849004   0.000000
    24  H    4.570489   2.324663   4.341075   0.000000
    25  H    6.878572   4.618400   4.950151   2.442313   0.000000
    26  S    8.613878   6.542767   4.867354   4.921840   2.933801
    27  O    9.158292   6.961100   6.023877   4.980716   2.615789
    28  O    9.190953   7.139811   5.497583   5.516157   3.545467
    29  H    7.093492   5.511212   2.398960   4.952244   4.297402
    30  C    9.795718   7.870007   5.534383   6.472585   4.611584
    31  F   11.058827   9.058958   6.875957   7.472837   5.357053
    32  F    9.688707   7.831135   5.600198   6.528512   4.856900
    33  F    9.831443   8.083295   5.182874   6.999342   5.425050
                   26         27         28         29         30
    26  S    0.000000
    27  O    1.536908   0.000000
    28  O    1.536052   2.336131   0.000000
    29  H    2.891865   4.304873   3.562815   0.000000
    30  C    1.816335   2.702026   2.715328   3.238013   0.000000
    31  F    2.625085   2.969565   3.048422   4.550264   1.381999
    32  F    2.623098   3.164854   3.897257   3.575284   1.381571
    33  F    2.625382   3.881974   3.115846   2.806402   1.381591
                   31         32         33
    31  F    0.000000
    32  F    2.253163   0.000000
    33  F    2.253412   2.258994   0.000000
 Stoichiometry    C11H13F3N2O3S
 Framework group  C1[X(C11H13F3N2O3S)]
 Deg. of freedom    93
 Full point group                 C1      NOp   1
 Largest Abelian subgroup         C1      NOp   1
 Largest concise Abelian subgroup C1      NOp   1
                         Standard orientation:                         
 ---------------------------------------------------------------------
 Center     Atomic      Atomic             Coordinates (Angstroms)
 Number     Number       Type             X           Y           Z
 ---------------------------------------------------------------------
      1          6           0       -8.395413   -0.904222    0.012471
      2          6           0       -7.252468    0.092560    0.181146
      3          6           0       -5.892979   -0.576921   -0.050799
      4          7           0       -4.808384    0.374832    0.117275
      5          6           0       -3.502831    0.011758   -0.031253
      6          8           0       -3.234127   -1.144419   -0.316101
      7          7           0       -2.519577    0.947868    0.145628
      8          6           0       -1.095347    0.765836    0.042656
      9          6           0       -0.463685   -0.458745   -0.286500
     10          6           0       -0.273755    1.884061    0.288174
     11          6           0        1.118007    1.792299    0.213392
     12          6           0        1.725388    0.576301   -0.109989
     13          6           0        0.930591   -0.543998   -0.360251
     14          1           0       -9.364887   -0.391874    0.187310
     15          1           0       -8.294937   -1.734057    0.744234
     16          1           0       -8.394378   -1.322676   -1.016546
     17          1           0       -7.288490    0.510429    1.210887
     18          1           0       -7.386325    0.922379   -0.546611
     19          1           0       -5.860023   -0.992512   -1.082217
     20          1           0       -5.766628   -1.407444    0.678541
     21          1           0       -5.033005    1.352824    0.359473
     22          1           0       -2.835681    1.900149    0.387519
     23          1           0       -0.999969   -1.366385   -0.492680
     24          1           0       -0.715061    2.839868    0.542308
     25          1           0        1.717769    2.671694    0.408327
     26         16           0        3.512887    0.435118   -0.210116
     27          8           0        4.119257    1.641291    0.524426
     28          8           0        3.919479    0.799917   -1.645755
     29          1           0        1.392780   -1.489875   -0.613141
     30          6           0        4.468849   -1.027405    0.286109
     31          9           0        5.819160   -0.765068    0.152831
     32          9           0        4.192444   -1.332509    1.604916
     33          9           0        4.130991   -2.097618   -0.519675
 ---------------------------------------------------------------------
 Rotational constants (GHZ):      1.0117119      0.0886748      0.0847456
 General basis read from cards:  (6D, 7F)
 There are   410 symmetry adapted cartesian basis functions of A   symmetry.
 There are   410 symmetry adapted basis functions of A   symmetry.
   410 basis functions,   716 primitive gaussians,   410 cartesian basis functions
    80 alpha electrons       80 beta electrons
       nuclear repulsion energy      1697.5876177157 Hartrees.
 NAtoms=   33 NActive=   33 NUniq=   33 SFac= 1.00D+00 NAtFMM=   60 NAOKFM=F Big=F
 Integral buffers will be    131072 words long.
 Raffenetti 2 integral format.
 Two-electron integral symmetry is turned on.
 ------------------------------------------------------------------------------
 Polarizable Continuum Model (PCM)
 =================================
 Model                : PCM (using non-symmetric T matrix).
 Atomic radii         : SMD-Coulomb.
 Polarization charges : Total charges.
 Charge compensation  : None.
 Solution method      : On-the-fly selection.
 Cavity type          : VdW (van der Waals Surface) (Alpha=1.000).
 Cavity algorithm     : GePol (No added spheres)
                        Default sphere list used, NSphG=   33.
                        Lebedev-Laikov grids with approx.  5.0 points / Ang**2.
                        Smoothing algorithm: York/Karplus (Gamma=1.0000).
                        Polarization charges: spherical gaussians, with
                                              point-specific exponents (IZeta= 3).
                        Self-potential: point-specific (ISelfS= 7).
                        Self-field    : sphere-specific E.n sum rule (ISelfD= 2).
 1st derivatives      : Analytical E(r).r(x)/FMM algorithm (CHGder, D1EAlg=3).
                        Cavity 1st derivative terms included.
 Solvent              : Water, Eps=  78.355300 Eps(inf)=   1.777849
 ------------------------------------------------------------------------------
 ------------------------------------------------------------------------------
 Atomic radii for non-electrostatic terms: SMD-CDS.
 ------------------------------------------------------------------------------
 Nuclear repulsion after PCM non-electrostatic terms =     1697.5993030210 Hartrees.
 One-electron integrals computed using PRISM.
 NBasis=   410 RedAO= T EigKep=  1.18D-06  NBF=   410
 NBsUse=   409 1.00D-06 EigRej=  9.07D-07 NBFU=   409
 ExpMin= 4.05D-02 ExpMax= 2.19D+04 ExpMxC= 3.30D+03 IAcc=3 IRadAn=         5 AccDes= 0.00D+00
 Harris functional with IExCor= 1009 and IRadAn=       5 diagonalized for initial guess.
 HarFok:  IExCor= 1009 AccDes= 0.00D+00 IRadAn=         5 IDoV= 1 UseB2=F ITyADJ=14
 ICtDFT=  3500011 ScaDFX=  1.000000  1.000000  1.000000  1.000000
 FoFCou: FMM=F IPFlag=           0 FMFlag=      100000 FMFlg1=           0
         NFxFlg=           0 DoJE=T BraDBF=F KetDBF=T FulRan=T
         wScrn=  0.000000 ICntrl=     500 IOpCl=  0 I1Cent=   200000004 NGrid=           0
         NMat0=    1 NMatS0=      1 NMatT0=    0 NMatD0=    1 NMtDS0=    0 NMtDT0=    0
 Petite list used in FoFCou.
 Requested convergence on RMS density matrix=1.00D-08 within 128 cycles.
 Requested convergence on MAX density matrix=1.00D-06.
 Requested convergence on             energy=1.00D-06.
 No special actions if energy rises.
 Inv3:  Mode=1 IEnd=    19157187.
 Iteration    1 A*A^-1 deviation from unit magnitude is 6.44D-15 for   2526.
 Iteration    1 A*A^-1 deviation from orthogonality  is 4.44D-15 for   2486    999.
 Iteration    1 A^-1*A deviation from unit magnitude is 6.66D-15 for   2526.
 Iteration    1 A^-1*A deviation from orthogonality  is 1.28D-12 for   1932   1865.
 Error on total polarization charges =  0.05725
 SCF Done:  E(RM062X) =  -1459.38943049     A.U. after   16 cycles
            NFock= 16  Conv=0.71D-08     -V/T= 2.0076
 SMD-CDS (non-electrostatic) energy       (kcal/mol) =       7.33
 (included in total energy above)

 **********************************************************************

            Population analysis using the SCF density.

 **********************************************************************

 Orbital symmetries:
       Occupied  (A) (A) (A) (A) (A) (A) (A) (A) (A) (A) (A) (A)
                 (A) (A) (A) (A) (A) (A) (A) (A) (A) (A) (A) (A)
                 (A) (A) (A) (A) (A) (A) (A) (A) (A) (A) (A) (A)
                 (A) (A) (A) (A) (A) (A) (A) (A) (A) (A) (A) (A)
                 (A) (A) (A) (A) (A) (A) (A) (A) (A) (A) (A) (A)
                 (A) (A) (A) (A) (A) (A) (A) (A) (A) (A) (A) (A)
                 (A) (A) (A) (A) (A) (A) (A) (A)
       Virtual   (A) (A) (A) (A) (A) (A) (A) (A) (A) (A) (A) (A)
                 (A) (A) (A) (A) (A) (A) (A) (A) (A) (A) (A) (A)
                 (A) (A) (A) (A) (A) (A) (A) (A) (A) (A) (A) (A)
                 (A) (A) (A) (A) (A) (A) (A) (A) (A) (A) (A) (A)
                 (A) (A) (A) (A) (A) (A) (A) (A) (A) (A) (A) (A)
                 (A) (A) (A) (A) (A) (A) (A) (A) (A) (A) (A) (A)
                 (A) (A) (A) (A) (A) (A) (A) (A) (A) (A) (A) (A)
                 (A) (A) (A) (A) (A) (A) (A) (A) (A) (A) (A) (A)
                 (A) (A) (A) (A) (A) (A) (A) (A) (A) (A) (A) (A)
                 (A) (A) (A) (A) (A) (A) (A) (A) (A) (A) (A) (A)
                 (A) (A) (A) (A) (A) (A) (A) (A) (A) (A) (A) (A)
                 (A) (A) (A) (A) (A) (A) (A) (A) (A) (A) (A) (A)
                 (A) (A) (A) (A) (A) (A) (A) (A) (A) (A) (A) (A)
                 (A) (A) (A) (A) (A) (A) (A) (A) (A) (A) (A) (A)
                 (A) (A) (A) (A) (A) (A) (A) (A) (A) (A) (A) (A)
                 (A) (A) (A) (A) (A) (A) (A) (A) (A) (A) (A) (A)
                 (A) (A) (A) (A) (A) (A) (A) (A) (A) (A) (A) (A)
                 (A) (A) (A) (A) (A) (A) (A) (A) (A) (A) (A) (A)
                 (A) (A) (A) (A) (A) (A) (A) (A) (A) (A) (A) (A)
                 (A) (A) (A) (A) (A) (A) (A) (A) (A) (A) (A) (A)
                 (A) (A) (A) (A) (A) (A) (A) (A) (A) (A) (A) (A)
                 (A) (A) (A) (A) (A) (A) (A) (A) (A) (A) (A) (A)
                 (A) (A) (A) (A) (A) (A) (A) (A) (A) (A) (A) (A)
                 (A) (A) (A) (A) (A) (A) (A) (A) (A) (A) (A) (A)
                 (A) (A) (A) (A) (A) (A) (A) (A) (A) (A) (A) (A)
                 (A) (A) (A) (A) (A) (A) (A) (A) (A) (A) (A) (A)
                 (A) (A) (A) (A) (A) (A) (A) (A) (A) (A) (A) (A)
                 (A) (A) (A) (A) (A)
 The electronic state is 1-A.
 Alpha  occ. eigenvalues --  -90.19215 -25.35867 -25.35506 -25.35484 -19.66660
 Alpha  occ. eigenvalues --  -19.66650 -19.62140 -14.81688 -14.78895 -10.89456
 Alpha  occ. eigenvalues --  -10.69503 -10.64279 -10.63080 -10.59889 -10.59572
 Alpha  occ. eigenvalues --  -10.58271 -10.58178 -10.57726 -10.54609 -10.53474
 Alpha  occ. eigenvalues --   -8.50777  -6.42912  -6.42829  -6.42777  -1.49236
 Alpha  occ. eigenvalues --   -1.41469  -1.41424  -1.23266  -1.19469  -1.10390
 Alpha  occ. eigenvalues --   -1.06113  -1.02956  -0.99223  -0.92690  -0.88939
 Alpha  occ. eigenvalues --   -0.87491  -0.87027  -0.80884  -0.77650  -0.74216
 Alpha  occ. eigenvalues --   -0.73307  -0.72768  -0.72680  -0.68567  -0.67651
 Alpha  occ. eigenvalues --   -0.67116  -0.63879  -0.62493  -0.61244  -0.61122
 Alpha  occ. eigenvalues --   -0.59859  -0.58009  -0.57648  -0.56804  -0.55952
 Alpha  occ. eigenvalues --   -0.55925  -0.55516  -0.54525  -0.53884  -0.53411
 Alpha  occ. eigenvalues --   -0.52516  -0.51782  -0.50334  -0.48910  -0.48024
 Alpha  occ. eigenvalues --   -0.46211  -0.45610  -0.43681  -0.43085  -0.41734
 Alpha  occ. eigenvalues --   -0.41601  -0.40600  -0.39624  -0.39504  -0.38947
 Alpha  occ. eigenvalues --   -0.37348  -0.35961  -0.33556  -0.32773  -0.29525
 Alpha virt. eigenvalues --   -0.05869  -0.03236  -0.00504   0.01078   0.01633
 Alpha virt. eigenvalues --    0.01994   0.02808   0.03515   0.03902   0.04520
 Alpha virt. eigenvalues --    0.04589   0.04999   0.05263   0.05993   0.06755
 Alpha virt. eigenvalues --    0.07001   0.07203   0.07624   0.07818   0.08036
 Alpha virt. eigenvalues --    0.08542   0.08904   0.09270   0.09879   0.10150
 Alpha virt. eigenvalues --    0.10317   0.10767   0.10945   0.11653   0.12082
 Alpha virt. eigenvalues --    0.12851   0.13188   0.13598   0.14146   0.14404
 Alpha virt. eigenvalues --    0.14864   0.15528   0.15666   0.16150   0.16494
 Alpha virt. eigenvalues --    0.16791   0.17194   0.17471   0.18323   0.19017
 Alpha virt. eigenvalues --    0.19332   0.19912   0.20297   0.20664   0.21104
 Alpha virt. eigenvalues --    0.21159   0.21720   0.22170   0.22510   0.22811
 Alpha virt. eigenvalues --    0.23262   0.23525   0.24066   0.24539   0.24741
 Alpha virt. eigenvalues --    0.24906   0.25427   0.25817   0.26036   0.26712
 Alpha virt. eigenvalues --    0.26877   0.27165   0.27708   0.28659   0.29065
 Alpha virt. eigenvalues --    0.29270   0.29904   0.30153   0.30604   0.30818
 Alpha virt. eigenvalues --    0.31141   0.31723   0.32089   0.32522   0.32700
 Alpha virt. eigenvalues --    0.32921   0.33134   0.33343   0.33490   0.34418
 Alpha virt. eigenvalues --    0.34553   0.34916   0.35337   0.35965   0.36755
 Alpha virt. eigenvalues --    0.36975   0.37603   0.38108   0.38399   0.38626
 Alpha virt. eigenvalues --    0.38746   0.39809   0.40278   0.40683   0.42093
 Alpha virt. eigenvalues --    0.42227   0.43398   0.43667   0.44488   0.45359
 Alpha virt. eigenvalues --    0.45905   0.46647   0.47516   0.48615   0.51168
 Alpha virt. eigenvalues --    0.51441   0.52918   0.54549   0.56867   0.58113
 Alpha virt. eigenvalues --    0.59198   0.60332   0.63371   0.65615   0.66307
 Alpha virt. eigenvalues --    0.69091   0.69726   0.70180   0.71486   0.71822
 Alpha virt. eigenvalues --    0.73607   0.74591   0.75091   0.75142   0.76996
 Alpha virt. eigenvalues --    0.77200   0.77674   0.79072   0.79492   0.80752
 Alpha virt. eigenvalues --    0.81314   0.82233   0.83425   0.83867   0.85632
 Alpha virt. eigenvalues --    0.86255   0.87225   0.89432   0.89449   0.89853
 Alpha virt. eigenvalues --    0.91988   0.92844   0.95423   0.96611   0.97030
 Alpha virt. eigenvalues --    0.98301   0.99475   1.00496   1.02110   1.02415
 Alpha virt. eigenvalues --    1.03383   1.03960   1.05383   1.05575   1.07738
 Alpha virt. eigenvalues --    1.08702   1.10602   1.11387   1.11925   1.12197
 Alpha virt. eigenvalues --    1.12674   1.13388   1.14404   1.16024   1.16931
 Alpha virt. eigenvalues --    1.18521   1.19504   1.21204   1.21901   1.22505
 Alpha virt. eigenvalues --    1.25558   1.26098   1.27714   1.30158   1.30834
 Alpha virt. eigenvalues --    1.31205   1.33531   1.34035   1.34499   1.36785
 Alpha virt. eigenvalues --    1.37505   1.37910   1.38327   1.38915   1.39125
 Alpha virt. eigenvalues --    1.41581   1.42545   1.43372   1.45023   1.45353
 Alpha virt. eigenvalues --    1.46253   1.46625   1.48058   1.48615   1.49485
 Alpha virt. eigenvalues --    1.50054   1.53238   1.54738   1.55455   1.56641
 Alpha virt. eigenvalues --    1.56932   1.60400   1.60841   1.62900   1.64282
 Alpha virt. eigenvalues --    1.65726   1.67162   1.68772   1.69575   1.70129
 Alpha virt. eigenvalues --    1.70780   1.71822   1.74009   1.74683   1.76705
 Alpha virt. eigenvalues --    1.78721   1.82882   1.83222   1.83437   1.84122
 Alpha virt. eigenvalues --    1.84655   1.84941   1.85389   1.85622   1.86109
 Alpha virt. eigenvalues --    1.88067   1.88832   1.90728   1.91276   1.91833
 Alpha virt. eigenvalues --    1.91921   1.93037   1.94566   1.95119   1.95978
 Alpha virt. eigenvalues --    1.96542   1.96602   1.98364   1.98752   1.99460
 Alpha virt. eigenvalues --    2.00259   2.00506   2.02364   2.02548   2.03399
 Alpha virt. eigenvalues --    2.05090   2.05526   2.06042   2.06173   2.10122
 Alpha virt. eigenvalues --    2.12175   2.13663   2.14817   2.15061   2.16291
 Alpha virt. eigenvalues --    2.16895   2.19557   2.20421   2.20923   2.21447
 Alpha virt. eigenvalues --    2.23248   2.23681   2.26000   2.26646   2.27629
 Alpha virt. eigenvalues --    2.29213   2.29583   2.30626   2.31283   2.36321
 Alpha virt. eigenvalues --    2.38034   2.38609   2.40627   2.41318   2.42089
 Alpha virt. eigenvalues --    2.48731   2.55586   2.56558   2.60471   2.63365
 Alpha virt. eigenvalues --    2.64918   2.66306   2.67594   2.70906   2.72513
 Alpha virt. eigenvalues --    2.72802   2.74042   2.75356   2.78056   2.78783
 Alpha virt. eigenvalues --    2.79489   2.80952   2.83426   2.86514   2.89553
 Alpha virt. eigenvalues --    2.97296   3.04254   3.11209   3.13403   3.14060
 Alpha virt. eigenvalues --    3.16159   3.26201   3.31187   3.38859   3.99273
 Alpha virt. eigenvalues --    4.14828   4.17122   4.25901   4.26245   4.28930
 Alpha virt. eigenvalues --    4.33779   4.37318   4.37861   4.41862   4.42373
 Alpha virt. eigenvalues --    4.47763   4.48403   4.49681   4.58654   4.66043
 Alpha virt. eigenvalues --    4.74700   5.66252   5.83521   6.31253
          Condensed to atoms (all electrons):
               1          2          3          4          5          6
     1  C    5.656315  -0.050129   0.031755  -0.001698  -0.057285  -0.003823
     2  C   -0.050129   6.131409  -0.332177  -0.079636   0.112414   0.016128
     3  C    0.031755  -0.332177   6.849675   0.277730  -0.455647  -0.077163
     4  N   -0.001698  -0.079636   0.277730   7.542429   0.458802  -0.207141
     5  C   -0.057285   0.112414  -0.455647   0.458802   6.932298   0.605102
     6  O   -0.003823   0.016128  -0.077163  -0.207141   0.605102   8.510145
     7  N   -0.002978   0.010624  -0.099415  -0.313067   0.200200  -0.101978
     8  C   -0.015322   0.001385  -0.542077  -0.158296  -1.003723  -0.406950
     9  C    0.001902  -0.002477   0.053864   0.034964   0.890788   0.397113
    10  C   -0.003731   0.000814  -0.212994  -0.080863  -3.016685  -0.142889
    11  C    0.000360   0.001197   0.043586   0.000779   1.046985   0.008768
    12  C   -0.000339  -0.000104  -0.043886   0.003963  -0.779647   0.016613
    13  C    0.000873   0.000035   0.037386   0.029448   0.280428   0.114226
    14  H    0.413570  -0.088266   0.027637   0.000446  -0.002291   0.000007
    15  H    0.416342  -0.062826  -0.009863   0.000536  -0.000162  -0.000052
    16  H    0.414978  -0.062472  -0.009087   0.000569   0.000048  -0.000050
    17  H   -0.036821   0.428277  -0.077385   0.006158  -0.004496  -0.000191
    18  H   -0.035348   0.426612  -0.074995   0.005967  -0.006405  -0.000170
    19  H    0.002036  -0.041672   0.421721  -0.053089  -0.021234   0.004014
    20  H    0.004283  -0.046032   0.435575  -0.054160  -0.030018   0.004339
    21  H   -0.003586   0.000524  -0.060075   0.248605   0.017716   0.008905
    22  H   -0.000068   0.000444  -0.001637   0.012367  -0.019778   0.007205
    23  H    0.000005   0.000132   0.002431  -0.000437   0.009157  -0.000761
    24  H   -0.000001   0.000021  -0.000397   0.000431  -0.006244  -0.000002
    25  H    0.000000   0.000000   0.000025   0.000010   0.003335  -0.000000
    26  S   -0.000007  -0.000016  -0.001983   0.000590  -0.091213   0.000046
    27  O   -0.000000  -0.000000  -0.000012   0.000005  -0.002620  -0.000001
    28  O   -0.000000  -0.000000  -0.000022   0.000002  -0.003714  -0.000004
    29  H   -0.000000   0.000002  -0.000000   0.000004   0.000123   0.000232
    30  C    0.000000   0.000002   0.000112  -0.000037   0.008699   0.000045
    31  F    0.000000   0.000000   0.000000  -0.000000   0.000032   0.000000
    32  F   -0.000000  -0.000000  -0.000001   0.000000  -0.000262  -0.000001
    33  F   -0.000000   0.000000  -0.000003  -0.000000  -0.000591  -0.000000
               7          8          9         10         11         12
     1  C   -0.002978  -0.015322   0.001902  -0.003731   0.000360  -0.000339
     2  C    0.010624   0.001385  -0.002477   0.000814   0.001197  -0.000104
     3  C   -0.099415  -0.542077   0.053864  -0.212994   0.043586  -0.043886
     4  N   -0.313067  -0.158296   0.034964  -0.080863   0.000779   0.003963
     5  C    0.200200  -1.003723   0.890788  -3.016685   1.046985  -0.779647
     6  O   -0.101978  -0.406950   0.397113  -0.142889   0.008768   0.016613
     7  N    7.676999   0.002210  -0.478887   0.374181   0.112866  -0.012951
     8  C    0.002210  17.397633  -0.802296  -3.533921   5.635753  -5.408202
     9  C   -0.478887  -0.802296  12.029787  -5.865346  -1.212648  -3.231097
    10  C    0.374181  -3.533921  -5.865346  25.545967 -12.023209   3.865780
    11  C    0.112866   5.635753  -1.212648 -12.023209  31.292140  -5.393248
    12  C   -0.012951  -5.408202  -3.231097   3.865780  -5.393248  19.873470
    13  C    0.029271  -4.734247   3.256541   1.208513 -11.042020  -0.373641
    14  H    0.000006  -0.000042   0.000003  -0.000002  -0.000000  -0.000000
    15  H    0.000021   0.000009  -0.000034   0.000004   0.000000  -0.000000
    16  H    0.000020  -0.000004  -0.000029   0.000003   0.000000  -0.000000
    17  H    0.000063  -0.000520  -0.000173   0.000135   0.000004  -0.000002
    18  H    0.000088  -0.000600  -0.000180   0.000161   0.000004  -0.000001
    19  H   -0.000596  -0.003148   0.002465  -0.000498  -0.000071   0.000019
    20  H   -0.000446  -0.006072   0.003395  -0.001158  -0.000020   0.000011
    21  H    0.017913   0.015582   0.000542  -0.000960  -0.000235   0.000030
    22  H    0.239854   0.016420   0.039713  -0.081991   0.021498  -0.002299
    23  H   -0.013035   0.075939   0.299200   0.043132  -0.017433   0.005012
    24  H   -0.009357   0.040871   0.025894   0.258706  -0.029906   0.021754
    25  H    0.000575   0.025442  -0.000228  -0.063486   0.334287   0.008260
    26  S    0.002055  -0.926890   0.059114   1.398910  -2.498268  -1.705503
    27  O    0.000187  -0.108677   0.003079   0.210356  -0.823591  -0.020497
    28  O   -0.000018  -0.071833   0.052513   0.075968  -0.478698  -0.446783
    29  H   -0.000586  -0.005182  -0.114747  -0.040304   0.097106   0.107137
    30  C   -0.000465   0.144145  -0.161942  -0.149551   0.910831   0.597150
    31  F   -0.000001   0.002871   0.001359  -0.002999   0.016128   0.057894
    32  F    0.000010  -0.009352   0.002024   0.015952  -0.028387  -0.087141
    33  F   -0.000013  -0.004270   0.050268   0.009287  -0.121270  -0.246103
              13         14         15         16         17         18
     1  C    0.000873   0.413570   0.416342   0.414978  -0.036821  -0.035348
     2  C    0.000035  -0.088266  -0.062826  -0.062472   0.428277   0.426612
     3  C    0.037386   0.027637  -0.009863  -0.009087  -0.077385  -0.074995
     4  N    0.029448   0.000446   0.000536   0.000569   0.006158   0.005967
     5  C    0.280428  -0.002291  -0.000162   0.000048  -0.004496  -0.006405
     6  O    0.114226   0.000007  -0.000052  -0.000050  -0.000191  -0.000170
     7  N    0.029271   0.000006   0.000021   0.000020   0.000063   0.000088
     8  C   -4.734247  -0.000042   0.000009  -0.000004  -0.000520  -0.000600
     9  C    3.256541   0.000003  -0.000034  -0.000029  -0.000173  -0.000180
    10  C    1.208513  -0.000002   0.000004   0.000003   0.000135   0.000161
    11  C  -11.042020  -0.000000   0.000000   0.000000   0.000004   0.000004
    12  C   -0.373641  -0.000000  -0.000000  -0.000000  -0.000002  -0.000001
    13  C   14.971160   0.000000  -0.000001  -0.000000  -0.000003  -0.000009
    14  H    0.000000   0.480571  -0.023791  -0.023744  -0.003001  -0.002980
    15  H   -0.000001  -0.023791   0.486644  -0.028326  -0.004560   0.003755
    16  H   -0.000000  -0.023744  -0.028326   0.486599   0.003761  -0.004547
    17  H   -0.000003  -0.003001  -0.004560   0.003761   0.488816  -0.030573
    18  H   -0.000009  -0.002980   0.003755  -0.004547  -0.030573   0.488608
    19  H    0.000228  -0.000057  -0.000327   0.002584   0.003635  -0.005291
    20  H    0.000346  -0.000054   0.002617  -0.000335  -0.005280   0.003645
    21  H   -0.000178  -0.000003   0.000001   0.000001   0.000592   0.000591
    22  H    0.002221  -0.000000  -0.000000  -0.000000   0.000000   0.000001
    23  H   -0.096721  -0.000000   0.000000   0.000000  -0.000000  -0.000000
    24  H    0.002431   0.000000   0.000000   0.000000  -0.000000  -0.000000
    25  H    0.008602  -0.000000   0.000000   0.000000  -0.000000   0.000000
    26  S    1.666791  -0.000000  -0.000000  -0.000000  -0.000000   0.000000
    27  O    0.370888  -0.000000  -0.000000  -0.000000  -0.000000  -0.000000
    28  O    0.448690  -0.000000   0.000000  -0.000000  -0.000000   0.000000
    29  H    0.260555  -0.000000   0.000000   0.000000   0.000000  -0.000000
    30  C   -0.930858  -0.000000   0.000000   0.000000   0.000000  -0.000000
    31  F   -0.006768   0.000000   0.000000  -0.000000  -0.000000   0.000000
    32  F    0.011097  -0.000000  -0.000000  -0.000000   0.000000  -0.000000
    33  F    0.232493  -0.000000   0.000000  -0.000000  -0.000000  -0.000000
              19         20         21         22         23         24
     1  C    0.002036   0.004283  -0.003586  -0.000068   0.000005  -0.000001
     2  C   -0.041672  -0.046032   0.000524   0.000444   0.000132   0.000021
     3  C    0.421721   0.435575  -0.060075  -0.001637   0.002431  -0.000397
     4  N   -0.053089  -0.054160   0.248605   0.012367  -0.000437   0.000431
     5  C   -0.021234  -0.030018   0.017716  -0.019778   0.009157  -0.006244
     6  O    0.004014   0.004339   0.008905   0.007205  -0.000761  -0.000002
     7  N   -0.000596  -0.000446   0.017913   0.239854  -0.013035  -0.009357
     8  C   -0.003148  -0.006072   0.015582   0.016420   0.075939   0.040871
     9  C    0.002465   0.003395   0.000542   0.039713   0.299200   0.025894
    10  C   -0.000498  -0.001158  -0.000960  -0.081991   0.043132   0.258706
    11  C   -0.000071  -0.000020  -0.000235   0.021498  -0.017433  -0.029906
    12  C    0.000019   0.000011   0.000030  -0.002299   0.005012   0.021754
    13  C    0.000228   0.000346  -0.000178   0.002221  -0.096721   0.002431
    14  H   -0.000057  -0.000054  -0.000003  -0.000000  -0.000000   0.000000
    15  H   -0.000327   0.002617   0.000001  -0.000000   0.000000   0.000000
    16  H    0.002584  -0.000335   0.000001  -0.000000   0.000000   0.000000
    17  H    0.003635  -0.005280   0.000592   0.000000  -0.000000  -0.000000
    18  H   -0.005291   0.003645   0.000591   0.000001  -0.000000  -0.000000
    19  H    0.491924  -0.038054   0.002034   0.000005  -0.000000   0.000000
    20  H   -0.038054   0.492150   0.002044   0.000005   0.000000   0.000000
    21  H    0.002034   0.002044   0.264020   0.001953   0.000001   0.000003
    22  H    0.000005   0.000005   0.001953   0.251569  -0.000103   0.004132
    23  H   -0.000000   0.000000   0.000001  -0.000103   0.406746  -0.000084
    24  H    0.000000   0.000000   0.000003   0.004132  -0.000084   0.412457
    25  H   -0.000000  -0.000000  -0.000000  -0.000008   0.000009  -0.003639
    26  S   -0.000000   0.000001  -0.000001   0.000290  -0.001810  -0.000073
    27  O    0.000000  -0.000000   0.000000   0.000001   0.000014   0.000122
    28  O   -0.000000   0.000000  -0.000000   0.000000   0.000010   0.000008
    29  H   -0.000000  -0.000000   0.000000   0.000001  -0.004141   0.000010
    30  C    0.000000  -0.000000   0.000000   0.000004   0.000278   0.000029
    31  F   -0.000000   0.000000   0.000000  -0.000000  -0.000000  -0.000000
    32  F    0.000000  -0.000000  -0.000000  -0.000000  -0.000003   0.000000
    33  F    0.000000  -0.000000  -0.000000  -0.000000  -0.000006   0.000000
              25         26         27         28         29         30
     1  C    0.000000  -0.000007  -0.000000  -0.000000  -0.000000   0.000000
     2  C    0.000000  -0.000016  -0.000000  -0.000000   0.000002   0.000002
     3  C    0.000025  -0.001983  -0.000012  -0.000022  -0.000000   0.000112
     4  N    0.000010   0.000590   0.000005   0.000002   0.000004  -0.000037
     5  C    0.003335  -0.091213  -0.002620  -0.003714   0.000123   0.008699
     6  O   -0.000000   0.000046  -0.000001  -0.000004   0.000232   0.000045
     7  N    0.000575   0.002055   0.000187  -0.000018  -0.000586  -0.000465
     8  C    0.025442  -0.926890  -0.108677  -0.071833  -0.005182   0.144145
     9  C   -0.000228   0.059114   0.003079   0.052513  -0.114747  -0.161942
    10  C   -0.063486   1.398910   0.210356   0.075968  -0.040304  -0.149551
    11  C    0.334287  -2.498268  -0.823591  -0.478698   0.097106   0.910831
    12  C    0.008260  -1.705503  -0.020497  -0.446783   0.107137   0.597150
    13  C    0.008602   1.666791   0.370888   0.448690   0.260555  -0.930858
    14  H   -0.000000  -0.000000  -0.000000  -0.000000  -0.000000  -0.000000
    15  H    0.000000  -0.000000  -0.000000   0.000000   0.000000   0.000000
    16  H    0.000000  -0.000000  -0.000000  -0.000000   0.000000   0.000000
    17  H   -0.000000  -0.000000  -0.000000  -0.000000   0.000000   0.000000
    18  H    0.000000   0.000000  -0.000000   0.000000  -0.000000  -0.000000
    19  H   -0.000000  -0.000000   0.000000  -0.000000  -0.000000   0.000000
    20  H   -0.000000   0.000001  -0.000000   0.000000  -0.000000  -0.000000
    21  H   -0.000000  -0.000001   0.000000  -0.000000   0.000000   0.000000
    22  H   -0.000008   0.000290   0.000001   0.000000   0.000001   0.000004
    23  H    0.000009  -0.001810   0.000014   0.000010  -0.004141   0.000278
    24  H   -0.003639  -0.000073   0.000122   0.000008   0.000010   0.000029
    25  H    0.396060  -0.010427   0.003201  -0.000751  -0.000106   0.000048
    26  S   -0.010427  16.716588   0.556791   0.618211   0.003510  -0.788312
    27  O    0.003201   0.556791   8.833953  -0.163885   0.000297  -0.224507
    28  O   -0.000751   0.618211  -0.163885   8.793782  -0.001939  -0.248468
    29  H   -0.000106   0.003510   0.000297  -0.001939   0.402999   0.001084
    30  C    0.000048  -0.788312  -0.224507  -0.248468   0.001084   5.614722
    31  F    0.000006  -0.093901  -0.009553  -0.003163   0.000017   0.227352
    32  F   -0.000012   0.101228   0.020791   0.014257  -0.000680   0.082203
    33  F   -0.000005   0.061516   0.016415   0.019028   0.001664   0.082790
              31         32         33
     1  C    0.000000  -0.000000  -0.000000
     2  C    0.000000  -0.000000   0.000000
     3  C    0.000000  -0.000001  -0.000003
     4  N   -0.000000   0.000000  -0.000000
     5  C    0.000032  -0.000262  -0.000591
     6  O    0.000000  -0.000001  -0.000000
     7  N   -0.000001   0.000010  -0.000013
     8  C    0.002871  -0.009352  -0.004270
     9  C    0.001359   0.002024   0.050268
    10  C   -0.002999   0.015952   0.009287
    11  C    0.016128  -0.028387  -0.121270
    12  C    0.057894  -0.087141  -0.246103
    13  C   -0.006768   0.011097   0.232493
    14  H    0.000000  -0.000000  -0.000000
    15  H    0.000000  -0.000000   0.000000
    16  H   -0.000000  -0.000000  -0.000000
    17  H   -0.000000   0.000000  -0.000000
    18  H    0.000000  -0.000000  -0.000000
    19  H   -0.000000   0.000000   0.000000
    20  H    0.000000  -0.000000  -0.000000
    21  H    0.000000  -0.000000  -0.000000
    22  H   -0.000000  -0.000000  -0.000000
    23  H   -0.000000  -0.000003  -0.000006
    24  H   -0.000000   0.000000   0.000000
    25  H    0.000006  -0.000012  -0.000005
    26  S   -0.093901   0.101228   0.061516
    27  O   -0.009553   0.020791   0.016415
    28  O   -0.003163   0.014257   0.019028
    29  H    0.000017  -0.000680   0.001664
    30  C    0.227352   0.082203   0.082790
    31  F    9.140982  -0.040745  -0.041464
    32  F   -0.040745   9.174612  -0.030585
    33  F   -0.041464  -0.030585   9.202532
 Mulliken charges:
               1
     1  C   -0.731282
     2  C   -0.364211
     3  C   -0.182676
     4  N   -0.675384
     5  C    0.935885
     6  O   -0.751712
     7  N   -0.633351
     8  C    0.383362
     9  C    0.665557
    10  C   -1.787286
    11  C    0.146710
    12  C   -0.805651
    13  C    0.252224
    14  H    0.221990
    15  H    0.220013
    16  H    0.220033
    17  H    0.231562
    18  H    0.231667
    19  H    0.233372
    20  H    0.233217
    21  H    0.483980
    22  H    0.508201
    23  H    0.292467
    24  H    0.282833
    25  H    0.298802
    26  S    0.932766
    27  O   -0.662756
    28  O   -0.603190
    29  H    0.292945
    30  C    0.834648
    31  F   -0.248048
    32  F   -0.225004
    33  F   -0.231683
 Sum of Mulliken charges =  -0.00000
 Mulliken charges with hydrogens summed into heavy atoms:
               1
     1  C   -0.069247
     2  C    0.099018
     3  C    0.283913
     4  N   -0.191403
     5  C    0.935885
     6  O   -0.751712
     7  N   -0.125149
     8  C    0.383362
     9  C    0.958024
    10  C   -1.504452
    11  C    0.445512
    12  C   -0.805651
    13  C    0.545168
    26  S    0.932766
    27  O   -0.662756
    28  O   -0.603190
    30  C    0.834648
    31  F   -0.248048
    32  F   -0.225004
    33  F   -0.231683
 Electronic spatial extent (au):  <R**2>=          11883.2158
 Charge=              0.0000 electrons
 Dipole moment (field-independent basis, Debye):
    X=            -12.6721    Y=              2.1421    Z=              3.7425  Tot=             13.3858
 Quadrupole moment (field-independent basis, Debye-Ang):
   XX=           -124.6711   YY=           -117.0639   ZZ=           -133.6877
   XY=            -40.3030   XZ=              2.9090   YZ=              4.0168
 Traceless Quadrupole moment (field-independent basis, Debye-Ang):
   XX=              0.4698   YY=              8.0770   ZZ=             -8.5469
   XY=            -40.3030   XZ=              2.9090   YZ=              4.0168
 Octapole moment (field-independent basis, Debye-Ang**2):
  XXX=           -332.8620  YYY=              6.5514  ZZZ=             17.2287  XYY=             -3.3989
  XXY=            -21.3007  XXZ=             58.8674  XZZ=             -1.6878  YZZ=            -16.1451
  YYZ=             10.6291  XYZ=              0.1030
 Hexadecapole moment (field-independent basis, Debye-Ang**3):
 XXXX=         -12806.6748 YYYY=           -915.2559 ZZZZ=           -396.8243 XXXY=           -796.9675
 XXXZ=             61.3534 YYYX=           -231.3399 YYYZ=             12.7840 ZZZX=             72.7498
 ZZZY=              0.6783 XXYY=          -2502.8826 XXZZ=          -2458.2386 YYZZ=           -235.6224
 XXYZ=             13.8067 YYXZ=            -15.8833 ZZXY=            -61.1699
 N-N= 1.697599303021D+03 E-N=-6.824394453470D+03  KE= 1.448426510211D+03
 D1PCM: PCM CHGder 1st derivatives, ID1Alg=3 FixD1E=F DoIter=F DoCFld=F I1PDM=0.
 Calling FoFJK, ICntrl=      2127 FMM=F ISym2X=0 I1Cent= 0 IOpClX= 0 NMat=1 NMatS=1 NMatT=0.
 ***** Axes restored to original set *****
 -------------------------------------------------------------------
 Center     Atomic                   Forces (Hartrees/Bohr)
 Number     Number              X              Y              Z
 -------------------------------------------------------------------
      1        6          -0.004870094    0.002008752   -0.000340516
      2        6           0.004291026   -0.005826236    0.000814342
      3        6          -0.006414953    0.007088131   -0.001142802
      4        7           0.018848202   -0.029313344    0.004102945
      5        6          -0.019888564   -0.003481027   -0.000162232
      6        8           0.003627079    0.034390273   -0.004543706
      7        7           0.030706159   -0.018516530    0.002163350
      8        6          -0.021696860    0.001602801   -0.000127530
      9        6           0.008433923   -0.002281786    0.001591923
     10        6           0.005885038    0.008133096    0.001181660
     11        6           0.005379283   -0.006887490   -0.002536986
     12        6          -0.017899819    0.023306526   -0.021469475
     13        6          -0.002731773   -0.004639885    0.000451101
     14        1           0.006472318    0.008728733   -0.001038476
     15        1          -0.001099335   -0.003494938    0.009649481
     16        1          -0.000901713   -0.005884652   -0.008366147
     17        1           0.001352053    0.004947826    0.008677622
     18        1           0.001512130    0.002541054   -0.009605575
     19        1           0.000537804   -0.005037098   -0.009290771
     20        1           0.000401588   -0.002306894    0.010302413
     21        1          -0.001361260    0.014132700   -0.001787410
     22        1           0.005327919    0.011723253   -0.001489242
     23        1          -0.007232586   -0.000928453    0.000258929
     24        1          -0.000673936   -0.001822148    0.000693761
     25        1           0.001365085   -0.002291441   -0.000956539
     26       16           0.074010347   -0.120077955    0.116647658
     27        8          -0.036296690    0.040783947   -0.034452955
     28        8          -0.030538117    0.035725986   -0.043531243
     29        1          -0.002833241    0.003355413   -0.000978616
     30        6           0.011659457    0.054336685   -0.045787103
     31        9          -0.060213687   -0.006982464   -0.001832691
     32        9           0.012806214    0.010536460    0.048829657
     33        9           0.022037003   -0.043569295   -0.015924823
 -------------------------------------------------------------------
 Cartesian Forces:  Max     0.120077955 RMS     0.025338230

 GradGradGradGradGradGradGradGradGradGradGradGradGradGradGradGradGradGrad
 Berny optimization.
 FormGI is forming the generalized inverse of G from B-inverse, IUseBI=4.
 Internal  Forces:  Max     0.060412433 RMS     0.013303664
 Search for a local minimum.
 Step number   1 out of a maximum of  175
 All quantities printed in internal units (Hartrees-Bohrs-Radians)
 Mixed Optimization -- RFO/linear search
 Second derivative matrix not updated -- first step.
 ITU=  0
     Eigenvalues ---    0.00230   0.00329   0.00423   0.00425   0.00994
     Eigenvalues ---    0.01169   0.01435   0.01468   0.01636   0.01695
     Eigenvalues ---    0.01942   0.01982   0.02047   0.02085   0.02101
     Eigenvalues ---    0.02120   0.02128   0.02131   0.02139   0.02178
     Eigenvalues ---    0.03755   0.03924   0.04436   0.04933   0.05553
     Eigenvalues ---    0.05673   0.05783   0.07395   0.08034   0.08804
     Eigenvalues ---    0.08839   0.09179   0.11976   0.12668   0.16000
     Eigenvalues ---    0.16000   0.16000   0.16000   0.16000   0.16000
     Eigenvalues ---    0.16000   0.16000   0.16000   0.17812   0.21964
     Eigenvalues ---    0.22000   0.22000   0.22000   0.22004   0.22005
     Eigenvalues ---    0.22964   0.24000   0.24871   0.25000   0.25000
     Eigenvalues ---    0.25000   0.25000   0.25000   0.25000   0.25000
     Eigenvalues ---    0.25000   0.26446   0.29144   0.29806   0.32336
     Eigenvalues ---    0.32338   0.32402   0.32408   0.32500   0.32511
     Eigenvalues ---    0.32559   0.35634   0.35669   0.35736   0.36703
     Eigenvalues ---    0.37889   0.39654   0.40682   0.41304   0.42437
     Eigenvalues ---    0.42459   0.44216   0.45268   0.45965   0.46171
     Eigenvalues ---    0.48739   0.48813   0.48816   0.51154   0.52303
     Eigenvalues ---    0.65646   0.65877   0.95078
 RFO step:  Lambda=-8.44909758D-02 EMin= 2.30000000D-03
 Linear search not attempted -- first point.
 Maximum step size (   0.300) exceeded in Quadratic search.
    -- Step size scaled by   0.720
 Iteration  1 RMS(Cart)=  0.08413850 RMS(Int)=  0.00219548
 Iteration  2 RMS(Cart)=  0.00508839 RMS(Int)=  0.00100510
 Iteration  3 RMS(Cart)=  0.00001464 RMS(Int)=  0.00100509
 Iteration  4 RMS(Cart)=  0.00000005 RMS(Int)=  0.00100509
 Variable       Old X    -DE/DX   Delta X   Delta X   Delta X     New X
                                 (Linear)    (Quad)   (Total)
    R1        2.88352   0.00103   0.00000   0.00194   0.00194   2.88546
    R2        2.09832  -0.01064   0.00000  -0.01869  -0.01869   2.07963
    R3        2.09938  -0.01008   0.00000  -0.01773  -0.01773   2.08165
    R4        2.09920  -0.01002   0.00000  -0.01762  -0.01762   2.08157
    R5        2.89703  -0.00717   0.00000  -0.01374  -0.01374   2.88329
    R6        2.10115  -0.00963   0.00000  -0.01698  -0.01698   2.08417
    R7        2.10104  -0.00963   0.00000  -0.01697  -0.01697   2.08407
    R8        2.74526   0.00031   0.00000   0.00048   0.00048   2.74574
    R9        2.10229  -0.01024   0.00000  -0.01809  -0.01809   2.08421
   R10        2.10233  -0.01019   0.00000  -0.01800  -0.01800   2.08433
   R11        2.57610  -0.01062   0.00000  -0.01259  -0.01259   2.56351
   R12        1.95071  -0.01422   0.00000  -0.02013  -0.02013   1.93058
   R13        2.30677   0.03475   0.00000   0.02417   0.02417   2.33094
   R14        2.58718   0.00792   0.00000   0.00957   0.00957   2.59676
   R15        2.72027  -0.04030   0.00000  -0.06033  -0.06033   2.65994
   R16        1.95043  -0.01232   0.00000  -0.01743  -0.01743   1.93299
   R17        2.67711  -0.01216   0.00000  -0.01730  -0.01730   2.65981
   R18        2.66292  -0.00337   0.00000  -0.00496  -0.00495   2.65797
   R19        2.64340  -0.01179   0.00000  -0.01556  -0.01557   2.62783
   R20        2.02996   0.00409   0.00000   0.00652   0.00652   2.03648
   R21        2.63954  -0.01497   0.00000  -0.01982  -0.01981   2.61974
   R22        2.04658   0.00200   0.00000   0.00326   0.00326   2.04985
   R23        2.64030  -0.00549   0.00000  -0.00699  -0.00699   2.63331
   R24        2.04497   0.00249   0.00000   0.00407   0.00407   2.04903
   R25        2.63846   0.00034   0.00000   0.00079   0.00078   2.63924
   R26        3.39368  -0.01567   0.00000  -0.03233  -0.03233   3.36135
   R27        2.04602   0.00268   0.00000   0.00438   0.00438   2.05040
   R28        2.90434  -0.04637   0.00000  -0.04506  -0.04506   2.85927
   R29        2.90272  -0.04390   0.00000  -0.04254  -0.04254   2.86018
   R30        3.43238   0.01423   0.00000   0.03075   0.03075   3.46312
   R31        2.61160  -0.06041   0.00000  -0.07607  -0.07607   2.53553
   R32        2.61079  -0.05156   0.00000  -0.06484  -0.06484   2.54595
   R33        2.61083  -0.05131   0.00000  -0.06453  -0.06453   2.54630
    A1        1.91257   0.00283   0.00000   0.00869   0.00865   1.92122
    A2        1.92559   0.00204   0.00000   0.00585   0.00583   1.93141
    A3        1.92600   0.00206   0.00000   0.00588   0.00586   1.93186
    A4        1.89643  -0.00224   0.00000  -0.00623  -0.00626   1.89017
    A5        1.89704  -0.00229   0.00000  -0.00641  -0.00644   1.89060
    A6        1.90572  -0.00255   0.00000  -0.00820  -0.00821   1.89752
    A7        1.94147  -0.00201   0.00000  -0.00381  -0.00380   1.93767
    A8        1.90034   0.00196   0.00000   0.00725   0.00725   1.90759
    A9        1.90183   0.00186   0.00000   0.00680   0.00679   1.90862
   A10        1.91025  -0.00010   0.00000  -0.00170  -0.00170   1.90855
   A11        1.91099  -0.00007   0.00000  -0.00166  -0.00165   1.90934
   A12        1.89844  -0.00162   0.00000  -0.00693  -0.00696   1.89147
   A13        1.93742  -0.00418   0.00000  -0.00901  -0.00899   1.92843
   A14        1.90676   0.00172   0.00000   0.00463   0.00463   1.91140
   A15        1.90450   0.00186   0.00000   0.00528   0.00529   1.90978
   A16        1.90698   0.00141   0.00000   0.00351   0.00352   1.91051
   A17        1.90546   0.00145   0.00000   0.00387   0.00388   1.90934
   A18        1.90240  -0.00227   0.00000  -0.00836  -0.00837   1.89403
   A19        2.12694  -0.00336   0.00000  -0.00794  -0.00794   2.11901
   A20        2.07760   0.00013   0.00000  -0.00060  -0.00060   2.07701
   A21        2.07864   0.00323   0.00000   0.00853   0.00853   2.08717
   A22        2.08117   0.01719   0.00000   0.03701   0.03701   2.11817
   A23        2.08475  -0.02748   0.00000  -0.05917  -0.05917   2.02558
   A24        2.11726   0.01029   0.00000   0.02216   0.02216   2.13943
   A25        2.23301  -0.00181   0.00000  -0.00429  -0.00429   2.22871
   A26        2.02771   0.00483   0.00000   0.01370   0.01370   2.04141
   A27        2.02245  -0.00301   0.00000  -0.00940  -0.00940   2.01305
   A28        2.17375  -0.00253   0.00000  -0.00535  -0.00535   2.16840
   A29        2.05335  -0.00853   0.00000  -0.01826  -0.01826   2.03509
   A30        2.05608   0.01106   0.00000   0.02361   0.02361   2.07970
   A31        2.10524  -0.00617   0.00000  -0.01404  -0.01405   2.09119
   A32        2.15600  -0.00305   0.00000  -0.01104  -0.01103   2.14497
   A33        2.02194   0.00922   0.00000   0.02508   0.02508   2.04703
   A34        2.11704  -0.00076   0.00000  -0.00167  -0.00166   2.11538
   A35        2.09861   0.00012   0.00000   0.00006   0.00006   2.09867
   A36        2.06753   0.00064   0.00000   0.00161   0.00160   2.06913
   A37        2.09754  -0.01096   0.00000  -0.02470  -0.02470   2.07284
   A38        2.08198   0.00490   0.00000   0.01063   0.01063   2.09260
   A39        2.10367   0.00606   0.00000   0.01407   0.01406   2.11773
   A40        2.08559   0.01304   0.00000   0.02988   0.02986   2.11545
   A41        2.11066  -0.01979   0.00000  -0.04352  -0.04351   2.06715
   A42        2.08694   0.00675   0.00000   0.01363   0.01363   2.10057
   A43        2.10488  -0.00621   0.00000  -0.01306  -0.01308   2.09180
   A44        2.08409  -0.00053   0.00000  -0.00420  -0.00419   2.07991
   A45        2.09421   0.00675   0.00000   0.01725   0.01726   2.11148
   A46        1.88006   0.01806   0.00000   0.03575   0.02888   1.90894
   A47        1.87225   0.02355   0.00000   0.05047   0.04363   1.91588
   A48        2.17966  -0.03932   0.00000  -0.11754  -0.12173   2.05792
   A49        1.72731   0.03408   0.00000   0.16415   0.16209   1.88940
   A50        1.86890  -0.00737   0.00000  -0.02794  -0.02944   1.83946
   A51        1.88310  -0.01192   0.00000  -0.03745  -0.03828   1.84483
   A52        1.91246  -0.01147   0.00000  -0.02658  -0.02654   1.88592
   A53        1.91061   0.00388   0.00000   0.00935   0.00930   1.91991
   A54        1.91313   0.00520   0.00000   0.01208   0.01204   1.92517
   A55        1.90652   0.00268   0.00000   0.00401   0.00403   1.91056
   A56        1.90682   0.00192   0.00000   0.00216   0.00222   1.90903
   A57        1.91425  -0.00226   0.00000  -0.00113  -0.00126   1.91299
    D1        3.14039   0.00002   0.00000   0.00015   0.00015   3.14054
    D2        1.03387   0.00013   0.00000  -0.00010  -0.00009   1.03378
    D3       -1.03437  -0.00011   0.00000   0.00015   0.00014  -1.03423
    D4        1.05304  -0.00025   0.00000  -0.00125  -0.00125   1.05179
    D5       -1.05348  -0.00014   0.00000  -0.00149  -0.00149  -1.05497
    D6       -3.12172  -0.00039   0.00000  -0.00124  -0.00126  -3.12298
    D7       -1.05444   0.00026   0.00000   0.00136   0.00136  -1.05307
    D8        3.12222   0.00037   0.00000   0.00111   0.00113   3.12335
    D9        1.05399   0.00012   0.00000   0.00136   0.00136   1.05534
   D10       -3.13683  -0.00010   0.00000  -0.00059  -0.00059  -3.13742
   D11        1.04225  -0.00034   0.00000  -0.00229  -0.00228   1.03997
   D12       -1.03609   0.00029   0.00000   0.00199   0.00198  -1.03411
   D13       -1.03614   0.00099   0.00000   0.00491   0.00491  -1.03123
   D14       -3.14025   0.00075   0.00000   0.00322   0.00322  -3.13703
   D15        1.06460   0.00139   0.00000   0.00750   0.00749   1.07208
   D16        1.04333  -0.00109   0.00000  -0.00556  -0.00556   1.03777
   D17       -1.06078  -0.00133   0.00000  -0.00725  -0.00725  -1.06803
   D18       -3.13912  -0.00069   0.00000  -0.00298  -0.00298   3.14108
   D19        3.13512   0.00012   0.00000   0.00068   0.00068   3.13581
   D20       -0.00243   0.00003   0.00000   0.00004   0.00005  -0.00239
   D21       -1.04408   0.00054   0.00000   0.00304   0.00303  -1.04105
   D22        2.10154   0.00045   0.00000   0.00240   0.00240   2.10394
   D23        1.03496  -0.00051   0.00000  -0.00273  -0.00273   1.03223
   D24       -2.10260  -0.00060   0.00000  -0.00337  -0.00337  -2.10597
   D25        0.00255   0.00003   0.00000   0.00021   0.00021   0.00276
   D26       -3.13550  -0.00018   0.00000  -0.00128  -0.00128  -3.13678
   D27        3.14011   0.00011   0.00000   0.00082   0.00083   3.14093
   D28        0.00206  -0.00010   0.00000  -0.00066  -0.00066   0.00140
   D29        3.13478   0.00027   0.00000   0.00189   0.00189   3.13667
   D30       -0.00043   0.00026   0.00000   0.00173   0.00173   0.00129
   D31       -0.00320   0.00004   0.00000   0.00035   0.00035  -0.00284
   D32       -3.13841   0.00003   0.00000   0.00019   0.00019  -3.13822
   D33        0.01363   0.00007   0.00000   0.00059   0.00061   0.01425
   D34       -3.12659   0.00020   0.00000   0.00150   0.00148  -3.12512
   D35       -3.13432   0.00011   0.00000   0.00082   0.00084  -3.13348
   D36        0.00864   0.00024   0.00000   0.00173   0.00171   0.01034
   D37       -3.13835   0.00003   0.00000   0.00025   0.00021  -3.13814
   D38        0.00327   0.00010   0.00000   0.00074   0.00075   0.00403
   D39        0.00187  -0.00011   0.00000  -0.00070  -0.00070   0.00117
   D40       -3.13969  -0.00004   0.00000  -0.00021  -0.00016  -3.13985
   D41        3.13804  -0.00040   0.00000  -0.00271  -0.00275   3.13529
   D42       -0.00204  -0.00011   0.00000  -0.00079  -0.00082  -0.00287
   D43       -0.00228  -0.00027   0.00000  -0.00184  -0.00191  -0.00419
   D44        3.14082   0.00002   0.00000   0.00008   0.00002   3.14084
[...]
 0.00000877,-0.00000465,-0.00000623,0.00002029,0.00000545,0.00005117,-0
 .00004096,0.00000190,-0.00027544,-0.00005067,-0.00001006,0.00062780,-0
 .00042451,-0.00008491,-0.00016497,0.00020179,0.00003436,-0.00107155,-0
 .00004154,0.00004257,0.00082680,0.00064490,0.00019389,-0.00086800,0.00
 003731,-0.00009523,0.00022320,-0.00096551,-0.00085278,-0.00345913,0.00
 061629,0.00139396,0.00448571,-0.00735109,0.00553585,0.00158119,-0.0010
 0294,-0.00001841,-0.00000481,0.00000110,0.00000010,0.00000009,0.000000
 41,-0.00000023,-0.00000089,0.00000086,0.00000128,0.00000039,-0.0000010
 1,-0.00000056,0.00000054,-0.00000266,0.00000034,-0.00001813,0.00000639
 ,0.00000450,-0.00001831,0.00000606,-0.00000117,0.00000489,0.00002699,0
 .00000109,0.00000417,0.00006554,-0.00001160,-0.00010303,-0.00006272,-0
 .00007061,-0.00040394,-0.00000909,-0.00020415,-0.00000048,0.00016474,0
 .00028734,-0.02725882,-0.21546089,-0.21400083,-0.00500860,0.00520576,0
 .01450154,0.03777519,0.24776105,0.20637977,-0.00000288,-0.00000784,-0.
 00000145,-0.00000666,0.00001623,0.00000259,0.00003520,-0.00003831,-0.0
 0000383,-0.00019084,0.00000902,0.00000093,0.00048572,-0.00028713,-0.00
 005259,-0.00008330,0.00017797,0.00002973,0.00002710,-0.00158112,-0.000
 33446,-0.00512341,-0.00053534,-0.00015452,-0.00314187,-0.02836084,-0.0
 0569875,-0.00082222,0.00003341,0.00004964,-0.00385295,0.00282742,0.000
 45441,0.00990883,0.02059970,0.00423992,-0.07694894,-0.06963886,-0.0139
 3851,-0.00000337,0.00000099,0.00000014,-0.00000027,0.00000051,-0.00000
 038,-0.00000023,0.00000043,0.00000055,0.00000019,-0.00000117,-0.000000
 57,0.00000019,-0.00000117,0.00000025,-0.00000974,0.00000539,0.00000318
 ,-0.00000992,0.00000624,-0.00000153,0.00001657,0.00002557,0.00000263,-
 0.00040927,-0.00003291,-0.00000909,0.00148335,0.00037671,0.00012104,0.
 00013949,-0.00006740,-0.00001917,0.00057056,0.00104001,0.00023162,-0.0
 0104044,0.00243520,0.00051162,0.00049386,-0.00039092,-0.00008789,-0.00
 024969,-0.00046175,-0.00003177,0.07888073,-0.00000089,-0.00000259,-0.0
 0000117,-0.00000179,0.00000588,0.00000084,0.00001351,-0.00001128,0.000
 00101,-0.00007309,-0.00001075,0.00000468,0.00018607,-0.00012517,-0.000
 06800,-0.00002060,0.00006922,-0.00000544,-0.00015891,-0.00008687,0.000
 02845,0.00000820,0.00150727,-0.00137509,-0.00007695,-0.00096521,-0.001
 36626,-0.00013074,0.00056674,0.00034413,0.00354655,-0.00021847,-0.0011
 9761,-0.00493228,-0.01427983,-0.00361478,-0.06981511,-0.32441109,-0.05
 779039,-0.00000136,0.00000023,0.00000005,0.,0.00000032,-0.00000013,-0.
 00000014,0.00000028,0.00000033,0.00000014,-0.00000044,-0.00000035,0.00
 000014,-0.00000066,0.00000027,-0.00000490,0.00000104,0.00000095,-0.000
 00505,0.00000254,-0.00000065,0.00000209,0.00000711,0.00000574,-0.00002
 293,0.00003089,0.00007725,0.00015126,0.00048683,0.00115429,-0.00006421
 ,-0.00006533,0.00012947,-0.00040879,-0.00049007,-0.00023378,-0.0007403
 7,-0.00271184,-0.00003201,0.00015796,0.00048501,-0.00007268,-0.0015180
 7,0.00103233,0.00027681,0.07382803,0.33921342,-0.00000042,-0.00000100,
 0.00000124,-0.00000047,0.00000092,-0.00000020,0.00000026,-0.00000162,0
 .00000935,-0.00000644,0.00000278,-0.00002510,0.00001492,-0.00003957,0.
 00011787,-0.00000692,-0.00000893,0.00008026,-0.00000385,0.00001592,-0.
 00019185,-0.00003396,-0.00113980,0.00789558,-0.00022020,-0.00132653,0.
 00528842,0.00011167,0.00031738,-0.00109196,0.00053926,-0.00122735,0.00
 528967,-0.00126178,-0.00340923,0.00257608,-0.01373086,-0.05829863,-0.0
 5131070,-0.00000015,0.00000008,-0.00000007,-0.00000024,0.00000018,-0.0
 0000017,0.00000011,-0.00000016,-0.00000016,0.00000013,-0.00000022,-0.0
 0000017,0.00000014,0.00000026,-0.00000019,-0.00000079,0.00000254,0.000
 00097,0.00000014,-0.00000230,0.00000048,0.00000037,0.00000479,-0.00002
 097,-0.00000006,0.00007153,-0.00032250,0.00006478,0.00109091,-0.004761
 62,-0.00000246,0.00010975,-0.00064321,-0.00005975,-0.00022485,0.000653
 28,0.00035935,0.00032788,-0.00344114,-0.00044229,0.00006066,0.00031501
 ,-0.00077344,-0.00018681,-0.00015294,0.01477431,0.06378813,0.03958825,
 -0.00000291,-0.00000927,-0.00000118,-0.00000501,0.00002364,0.00000431,
 0.00005443,-0.00003027,-0.00000650,-0.00030053,-0.00006072,-0.00001991
 ,0.00081357,-0.00062231,-0.00010575,-0.00008065,0.00031140,0.00005893,
 -0.00162009,-0.00017411,0.00012933,0.00134608,0.00053548,0.00033419,-0
 .00114316,-0.00078743,-0.00147251,-0.00110461,0.00050408,-0.00115571,-
 0.00058428,0.00068599,0.00158513,-0.00482337,-0.00552755,0.01282312,0.
 00078866,-0.00120097,0.00107313,-0.00000451,0.00000165,0.00000028,-0.0
 0000097,0.00000074,-0.00000059,-0.00000026,0.,0.00000018,0.00000034,-0
 .00000252,-0.00000131,0.00000018,-0.00000148,-0.00000008,-0.00002020,0
 .00000546,0.00000434,-0.00002808,0.00000466,-0.00000124,0.00000421,0.0
 0003270,0.00000325,-0.00002539,0.00008726,0.00001648,-0.00002929,0.000
 03711,-0.00013403,-0.00006490,-0.00000311,-0.00014746,-0.00000634,-0.0
 0032706,0.00053940,-0.04353226,-0.01317554,0.03930482,-0.00304824,0.01
 897482,-0.02022876,0.00440352,-0.00444146,-0.01251727,-0.00022299,0.00
 018720,0.00082080,0.54488311,0.00000294,0.00000850,0.00000060,0.000005
 82,-0.00001830,-0.00000369,-0.00004929,0.00003612,0.00000941,0.0002504
 7,0.00004289,-0.00000006,-0.00061178,0.00045929,0.00010678,0.00010347,
 -0.00023432,-0.00003844,0.00104875,0.00004330,0.00005010,-0.00062673,-
 0.00081213,-0.00016232,0.00097657,0.00078797,0.00016632,-0.00024595,0.
 00018405,-0.00028436,0.00096264,-0.00069850,0.00029183,-0.00077614,0.0
 0424198,0.00205020,-0.00176854,0.00011195,0.00034954,0.00000383,-0.000
 00128,-0.00000017,0.00000087,-0.00000060,0.00000101,0.00000050,-0.0000
 0035,-0.00000103,-0.00000060,0.00000130,-0.00000012,-0.00000070,0.0000
 0088,0.00000065,0.00001686,-0.00000456,-0.00000355,0.00001831,-0.00000
 653,0.00000283,-0.00000573,-0.00002422,-0.00000374,0.00001210,-0.00005
 320,-0.00001904,-0.00000134,0.00000218,-0.00003469,0.00017167,0.000042
 01,0.00000260,-0.00001210,-0.00044762,0.00020121,-0.01010223,-0.038547
 88,0.04267101,0.00374287,-0.00787521,0.01279476,0.00158740,-0.01217773
 ,-0.03360367,0.00004594,-0.00011171,-0.00020928,-0.00361442,0.54817944
 ,-0.00002070,-0.00005347,-0.00000524,-0.00002990,0.00012428,0.00001939
 ,0.00029703,-0.00018821,-0.00006329,-0.00159977,-0.00036007,-0.0000685
 3,0.00397887,-0.00276581,-0.00041881,-0.00071779,0.00133546,0.00024158
 ,-0.00711455,-0.00055617,-0.00000248,0.00557527,0.00171964,0.00033509,
 -0.00307349,-0.00213994,-0.00149265,-0.00419224,0.00090482,-0.00090685
 ,0.00090695,0.00489441,0.00130056,-0.00919168,-0.00400779,0.01245032,0
 .00323448,-0.00415128,-0.00059611,-0.00002684,0.00000659,0.00000120,-0
 .00000262,0.00000385,-0.00000158,-0.00000074,0.00000205,0.00000140,0.0
 0000094,-0.00001143,-0.00000696,0.00000261,-0.00000925,0.00000161,-0.0
 0010421,0.00002874,0.00001729,-0.00012044,0.00003571,-0.00000697,0.000
 02283,0.00016688,0.00003028,-0.00013328,0.00039276,0.00010156,-0.00028
 289,-0.00013499,-0.00014320,-0.00049432,-0.00019272,-0.00014732,0.0001
 0963,0.00000587,0.00066615,0.02450995,0.03818061,-0.17277931,0.0097703
 9,-0.01905337,0.01536906,0.00074232,0.01070256,0.01200593,0.00023004,-
 0.00028176,0.00054314,0.00703589,0.01192184,0.50711128,-0.00000934,-0.
 00002389,-0.00000424,-0.00001364,0.00005560,0.00000882,0.00013471,-0.0
 0008438,-0.00002261,-0.00071897,-0.00016202,-0.00002769,0.00178760,-0.
 00122038,-0.00021820,-0.00032586,0.00059123,0.00011466,-0.00318397,-0.
 00025938,0.00004235,0.00257489,0.00084127,0.00014879,-0.00144781,-0.00
 099831,-0.00067939,-0.00183572,0.00037863,-0.00040649,0.00050829,0.002
 32598,0.00107557,-0.00372645,-0.00210088,0.00562361,0.00172300,-0.0020
 0744,0.00022490,-0.00001256,0.00000276,0.00000042,-0.00000054,0.000001
 46,-0.00000056,-0.00000078,0.00000139,0.00000120,0.00000083,-0.0000041
 7,-0.00000259,0.00000104,-0.00000517,0.00000108,-0.00004834,0.00001328
 ,0.00000847,-0.00005324,0.00001503,-0.00000215,0.00001123,0.00007742,0
 .00000807,-0.00005162,0.00018264,0.00003662,-0.00010481,-0.00005099,-0
 .00011423,-0.00021150,-0.00006362,-0.00011399,0.00007314,0.00005270,0.
 00023503,-0.02583364,-0.00585144,-0.01090512,0.00621939,-0.00510321,0.
 00397028,0.00300392,0.00483507,0.00516186,0.00011497,-0.00010438,0.000
 20554,-0.28807022,-0.07082161,0.03672668,0.41128772,-0.00000432,-0.000
 01133,-0.00000143,-0.00000648,0.00002636,0.00000406,0.00006422,-0.0000
 4024,-0.00001268,-0.00033746,-0.00007356,-0.00001330,0.00084431,-0.000
 58578,-0.00009812,-0.00015074,0.00028573,0.00005507,-0.00151060,-0.000
 11895,0.00001532,0.00122123,0.00039855,0.00010005,-0.00070211,-0.00050
 094,-0.00036257,-0.00086159,0.00017915,-0.00025195,0.00010047,0.000975
 80,0.00062353,-0.00170496,-0.00126933,0.00268412,0.00095509,-0.0009720
 4,0.00001470,-0.00000574,0.00000139,0.00000021,-0.00000040,0.00000073,
 -0.00000043,-0.00000035,0.00000061,0.00000062,0.00000038,-0.00000201,-
 0.00000107,0.00000047,-0.00000226,0.00000036,-0.00002280,0.00000619,0.
 00000421,-0.00002572,0.00000713,-0.00000124,0.00000544,0.00003596,0.00
 000402,-0.00002472,0.00008589,0.00001838,-0.00004649,-0.00001937,-0.00
 004909,-0.00010683,-0.00002666,-0.00005602,0.00001508,0.00003564,0.000
 11835,-0.01370214,-0.00010737,-0.00429932,0.00087122,-0.00007930,0.000
 14592,0.00177597,0.00345479,0.00410200,0.00003526,-0.00002219,0.000148
 33,-0.07186813,-0.08864388,0.01284965,0.09757478,0.10455506,0.00000826
 ,0.00002147,0.00000353,0.00001223,-0.00005045,-0.00000859,-0.00012072,
 0.00007534,0.00002025,0.00064690,0.00014298,0.00002970,-0.00162174,0.0
 0112673,0.00018793,0.00028408,-0.00054501,-0.00010074,0.00292020,0.000
 24579,-0.00004432,-0.00238019,-0.00076879,-0.00019984,0.00137446,0.000
 95338,0.00078631,0.00175669,-0.00040770,0.00051244,-0.00037794,-0.0020
 7782,-0.00102093,0.00348689,0.00203585,-0.00544042,-0.00152193,0.00185
 947,-0.00022706,0.00001108,-0.00000263,-0.00000044,0.00000082,-0.00000
 148,0.00000064,0.00000056,-0.00000100,-0.00000083,-0.00000061,0.000004
 24,0.00000265,-0.00000103,0.00000425,-0.00000074,0.00004345,-0.0000115
 3,-0.00000730,0.00004883,-0.00001396,0.00000227,-0.00000984,-0.0000694
 0,-0.00000961,0.00005085,-0.00016390,-0.00003889,0.00009866,0.00004497
 ,0.00010174,0.00018862,0.00005694,0.00010146,-0.00003190,0.00003282,-0
 .00030727,0.02555492,0.00598066,0.00816061,-0.00291288,0.00232861,-0.0
 0231460,-0.00139743,-0.00178355,-0.00251310,-0.00004285,0.00007841,-0.
 00030941,0.04060607,0.01388168,-0.07761104,-0.01424911,-0.00118208,0.0
 6419856,-0.00000017,-0.00000055,0.00000057,-0.00000054,0.00000029,-0.0
 0000079,0.00000139,-0.00000071,-0.00000577,-0.00000246,-0.00000156,0.0
 0000529,-0.00000632,0.00000945,0.00001787,-0.00000433,-0.00000974,0.00
 000052,0.00004854,-0.00001153,-0.00001523,-0.00012669,0.00035026,-0.00
 004658,-0.00021504,-0.00015245,0.00002546,0.00039343,-0.00011764,0.000
 19828,-0.00040303,0.00011428,0.00012235,0.00013823,0.00034563,-0.00053
 823,0.00041056,-0.00007898,0.00009686,-0.00000010,-0.00000007,-0.00000
 003,0.00000010,0.,-0.00000002,-0.00000004,0.00000015,0.00000013,0.0000
 0030,0.00000033,0.00000012,0.00000019,-0.00000004,-0.00000002,-0.00000
 010,0.00000042,-0.00000010,0.00000054,0.00000012,0.00000012,0.00000085
 ,0.00000078,-0.00000122,0.00000022,-0.00000011,-0.00000050,0.00000433,
 -0.00001363,0.00000525,-0.00000996,-0.00000792,0.00000685,-0.00000521,
 0.00004747,-0.00014004,0.00466299,0.00221076,-0.00000641,0.00053952,-0
 .00133054,0.00106923,0.00001158,-0.00010119,0.00128496,-0.00000142,0.0
 0002085,-0.00009134,-0.06953091,-0.02163743,-0.01872853,-0.02869671,-0
 .04890615,-0.03316128,0.08502466,0.00000145,0.00000324,0.00000129,0.00
 000164,-0.00000853,-0.00000187,-0.00001878,0.00001133,-0.00000162,0.00
 010943,0.00002827,0.00000870,-0.00027530,0.00017794,0.00002802,0.00005
 680,-0.00008403,-0.00001244,0.00050613,0.00002839,-0.00001444,-0.00051
 143,0.00023585,0.00003326,-0.00005160,-0.00006670,0.00002458,0.0006799
 8,0.00002633,0.00019150,0.00004449,-0.00034478,-0.00014227,0.00031852,
 0.00109996,-0.00061059,0.00022432,0.00016794,0.00020110,0.00000198,-0.
 00000039,-0.00000009,-0.00000001,-0.00000024,-0.00000022,-0.00000013,-
 0.00000002,0.00000032,0.00000004,0.00000094,0.00000092,0.00000001,0.00
 000077,-0.00000035,0.00000736,-0.00000159,-0.00000045,0.00000786,-0.00
 000226,0.,-0.00000085,-0.00001206,-0.00000329,0.00000842,-0.00002864,-
 0.00000584,0.00003668,0.00001619,-0.00001048,0.00006399,0.00000816,0.0
 0002698,-0.00003681,0.00004984,-0.00015773,-0.00207688,-0.00995249,0.0
 0061236,-0.00168129,0.00573850,-0.00072545,0.00040298,-0.00134930,-0.0
 0527185,-0.00009923,0.00007522,0.00001499,-0.02231157,-0.19498610,-0.1
 2090947,-0.03958908,-0.02789172,-0.02290812,0.04310253,0.30015694,0.00
 000508,0.00001252,0.00000105,0.00000701,-0.00002876,-0.00000506,-0.000
 06782,0.00004418,0.00001324,0.00036820,0.00008428,0.00001361,-0.000897
 14,0.00060467,0.00009186,0.00018104,-0.00029308,-0.00004885,0.00159183
 ,0.00011242,0.00002972,-0.00125691,-0.00029027,-0.00008311,0.00061040,
 0.00040662,0.00021730,0.00089221,0.00016954,0.00013416,0.00114092,-0.0
 0109068,-0.00086354,0.00142003,0.00325775,-0.00109121,-0.00067411,0.00
 078896,0.00016838,0.00000620,-0.00000149,-0.00000034,0.00000061,-0.000
 00105,0.00000026,-0.00000010,-0.00000032,0.00000006,-0.00000020,0.0000
 0291,0.00000195,-0.00000049,0.00000189,-0.00000033,0.00002411,-0.00000
 634,-0.00000285,0.00002731,-0.00000872,0.00000125,-0.00000525,-0.00003
 873,-0.00000899,0.00002380,-0.00009270,-0.00002259,0.00006793,0.000041
 18,-0.00000237,0.00020668,0.00004473,0.00006482,-0.00010659,-0.0000378
 9,-0.00012162,-0.00816077,-0.03502503,-0.00371227,-0.00158521,0.007990
 33,-0.00237009,0.00156007,-0.00695492,-0.01871570,-0.00018676,0.000097
 29,-0.00004162,-0.02003114,-0.12204672,-0.19027088,-0.01911604,-0.0142
 8517,0.00473801,0.03739832,0.17666422,0.19809395,0.00000098,0.00000289
 ,0.00000089,0.00000191,-0.00000679,-0.00000219,-0.00001835,0.00001196,
 -0.00000184,0.00009604,0.00001952,0.00000610,-0.00024335,0.00018167,0.
 00004657,0.00003451,-0.00009006,-0.00001179,0.00046061,0.00006448,-0.0
 0002115,-0.00022747,-0.00057445,-0.00022979,0.00070719,0.00035288,0.00
 037068,-0.00016526,-0.00004836,0.00014196,0.00038784,0.00002568,0.0001
 2981,0.00096962,-0.00032197,-0.00118616,-0.00032979,0.00018986,0.00007
 654,0.00000121,-0.00000065,-0.00000013,0.00000048,-0.00000032,0.000000
 30,0.00000008,0.00000010,-0.00000008,0.00000002,0.00000086,0.00000039,
 -0.00000014,0.00000004,0.00000029,0.00000681,-0.00000141,-0.00000129,0
 .00000829,-0.00000230,0.00000120,-0.00000028,-0.00000874,-0.00000233,0
 .00000900,-0.00002285,-0.00001008,0.00002741,0.00001571,0.00002784,0.0
 0003448,0.00002508,0.00000322,-0.00003414,-0.00006282,-0.00010166,-0.0
 0173836,0.00602643,0.00288483,-0.00079549,0.00270692,-0.00264742,0.000
 86048,-0.00240525,-0.00081353,-0.00003635,-0.00002143,-0.00025634,-0.1
 3804491,0.10132358,-0.04730987,-0.07309502,0.03652382,-0.01926411,0.00
 776561,0.02107836,0.00655677,0.20335633,-0.00000250,-0.00000695,-0.000
 00089,-0.00000513,0.00001581,0.00000258,0.00003990,-0.00002679,-0.0000
 0677,-0.00021262,-0.00004335,-0.00000832,0.00052431,-0.00037991,-0.000
 05808,-0.00011173,0.00018392,0.00002948,-0.00092338,-0.00006585,-0.000
 01492,0.00067779,0.00040465,0.00003436,-0.00066459,-0.00014619,-0.0000
 7814,-0.00031528,0.00005523,-0.00000489,-0.00006130,0.00051799,-0.0000
 1136,-0.00148566,0.00095118,0.00117300,-0.00006017,-0.00106862,-0.0000
 1657,-0.00000331,0.00000111,0.00000018,-0.00000068,0.00000055,-0.00000
 058,-0.00000029,0.00000014,0.00000044,0.00000052,-0.00000137,-0.000000
 40,0.00000063,-0.00000068,-0.00000033,-0.00001420,0.00000382,0.0000022
 7,-0.00001608,0.00000492,-0.00000150,0.00000425,0.00002118,0.00000405,
 -0.00001454,0.00004824,0.00001915,-0.00007512,-0.00004448,-0.00004892,
 -0.00009496,-0.00003715,0.00001139,0.00007860,0.00015302,0.00000200,0.
 01702667,-0.01453711,-0.00686168,0.00223769,-0.00776088,0.00941676,-0.
 00202009,0.00674131,0.00515960,0.00003996,0.00002915,0.00011924,0.1027
 6572,-0.20949774,0.07153999,0.02150110,0.01031794,0.00111383,0.0261669
 1,-0.07309694,-0.01012163,-0.16498244,0.28726386,0.00000403,0.00001024
 ,0.00000103,0.00000642,-0.00002335,-0.00000363,-0.00005479,0.00003649,
 0.00001082,0.00029868,0.00006677,0.00002060,-0.00073407,0.00050929,0.0
 0005761,0.00015903,-0.00024434,-0.00004167,0.00129008,0.00009430,0.000
 02694,-0.00099445,-0.00032146,-0.00004952,0.00061669,0.00014914,0.0000
 9462,0.00070164,-0.00013940,0.00007569,-0.00022694,-0.00083272,-0.0002
 0049,0.00229063,-0.00113493,-0.00168155,0.00017105,0.00136776,-0.00011
 693,0.00000495,-0.00000134,-0.00000026,0.00000075,-0.00000082,0.000000
 45,0.00000011,-0.00000021,-0.00000021,-0.00000015,0.00000247,0.0000011
 7,-0.00000090,0.00000120,0.00000009,0.00001902,-0.00000509,-0.00000283
 ,0.00002238,-0.00000700,0.00000152,-0.00000445,-0.00003119,-0.00000765
 ,0.00002209,-0.00007009,-0.00002476,0.00009176,0.00005399,0.00005531,0
 .00010184,0.00004415,0.00000852,-0.00008707,-0.00009594,-0.00008091,-0
 .01972937,0.02017620,0.00671084,-0.00338236,0.01088731,-0.01143380,0.0
 0163339,-0.00375248,-0.00365290,-0.00008849,0.00005199,-0.00004563,-0.
 04851622,0.07190852,-0.10567461,-0.00773156,-0.00027444,0.01130903,0.0
 1250391,-0.02703167,0.01379178,0.06161236,-0.07139335,0.09085132\\-0.0
 0000060,-0.00000173,-0.00000337,0.00000078,-0.00000312,0.00000164,0.00
 000017,-0.00000056,-0.00000282,-0.00000053,-0.00000090,0.00000162,0.00
 000097,0.00000036,-0.00000492,-0.00000050,0.00000259,-0.00000608,0.000
 00110,0.00000008,0.00000849,-0.00000061,0.00000262,0.00000014,-0.00000
 055,0.00000186,-0.00000607,0.00000102,-0.00000019,0.00000950,0.0000002
 0,-0.00000062,0.00000830,0.00000047,0.00000803,0.00000285,-0.00000371,
 0.00000266,-0.00000410,0.00000071,-0.00000307,0.00000036,0.00000071,-0
 .00000678,-0.00000752,-0.00000094,0.00000313,-0.00000625,0.00000180,-0
 .00000700,0.00000439,-0.00000005,0.00000247,0.00000558,-0.00000118,0.0
 0000455,-0.00000613,-0.00000013,-0.00000520,-0.00000748,0.00000068,-0.
 00000151,0.00000665,0.00000107,-0.00000021,0.00000747,-0.00000201,0.00
 000379,-0.00000907,0.00000105,-0.00000052,0.00001433,0.00000020,0.0000
 0169,0.00001295,-0.00000198,0.00000180,0.00000119,0.00000003,0.0000047
 9,0.00000532,-0.00000302,0.00001155,-0.00000686,-0.00000083,0.00000565
 ,-0.00001069,0.00000596,-0.00000410,0.00000222,-0.00000076,-0.00000477
 ,-0.00000327,0.00000060,-0.00001117,0.00000180,-0.00000013,-0.00000618
 ,-0.00001017\\\@


 CHILDREN YOU ARE VERY LITTLE,
 AND YOUR BONES ARE VERY BRITTLE;
 IF YOU WOULD GROW GREAT AND STATELY
 YOU MUST TRY TO WALK SEDATELY.
 YOU MUST STILL BE BRIGHT AND QUIET,
 AND CONTENT WITH SIMPLE DIET;
 AND REMAIN, THROUGH ALL BEWILD'RING
 INNOCENT AND HONEST CHILDREN.
     -- A CHILD'S GARDEN OF VERSE,
        ROBERT LOUIS STEVENSON
 Job cpu time:       0 days  4 hours 28 minutes 52.3 seconds.
 File lengths (MBytes):  RWF=    736 Int=      0 D2E=      0 Chk=     24 Scr=      1
 Normal termination of Gaussian 09 at Tue Oct 30 13:15:02 2018.
WARNING: pbs_rusage is deprecated and values produced may not be accurate


=============================================================================
                                     Resource usage:
                                       CPU time:              13:46:34
   JobId:    1827621.r-man2            Elapsed time:          03:28:52
   Project:             q95            Requested time:        40:00:00
   Service Units:     13.92 
                                       Max physical memory:      936MB
                                       Max virtual memory:      1984MB
                                       Requested memory:           0MB

                                       Number of cpus:               4

                                       Max jobfs disk use:       0.7GB
                                       Requested jobfs:         20.0GB
=============================================================================

