 Entering Gaussian System, Link 0=/apps/gaussian/g09e01/g09/g09
 AtFile(1): /home/507/hio507/Basis/6-31pGd.gbs
 Initial command:
 /apps/gaussian/g09e01/g09/l1.exe "/jobfs/local/1827624.r-man2/Gau-24728.inp" -scrdir="/jobfs/local/1827624.r-man2/"
 Entering Link 1 = /apps/gaussian/g09e01/g09/l1.exe PID=     24729.
  
 Copyright (c) 1988,1990,1992,1993,1995,1998,2003,2009,2015,
            Gaussian, Inc.  All Rights Reserved.
  
 This is part of the Gaussian(R) 09 program.  It is based on
 the Gaussian(R) 03 system (copyright 2003, Gaussian, Inc.),
 the Gaussian(R) 98 system (copyright 1998, Gaussian, Inc.),
 the Gaussian(R) 94 system (copyright 1995, Gaussian, Inc.),
 the Gaussian 92(TM) system (copyright 1992, Gaussian, Inc.),
 the Gaussian 90(TM) system (copyright 1990, Gaussian, Inc.),
 the Gaussian 88(TM) system (copyright 1988, Gaussian, Inc.),
 the Gaussian 86(TM) system (copyright 1986, Carnegie Mellon
 University), and the Gaussian 82(TM) system (copyright 1983,
 Carnegie Mellon University). Gaussian is a federally registered
 trademark of Gaussian, Inc.
  
 This software contains proprietary and confidential information,
 including trade secrets, belonging to Gaussian, Inc.
  
 This software is provided under written license and may be
 used, copied, transmitted, or stored only in accord with that
 written license.
  
 The following legend is applicable only to US Government
 contracts under FAR:
  
                    RESTRICTED RIGHTS LEGEND
  
 Use, reproduction and disclosure by the US Government is
 subject to restrictions as set forth in subparagraphs (a)
 and (c) of the Commercial Computer Software - Restricted
 Rights clause in FAR 52.227-19.
  
 Gaussian, Inc.
 340 Quinnipiac St., Bldg. 40, Wallingford CT 06492
  
  
 ---------------------------------------------------------------
 Warning -- This program may not be used in any manner that
 competes with the business of Gaussian, Inc. or will provide
 assistance to any competitor of Gaussian, Inc.  The licensee
 of this program is prohibited from giving any competitor of
 Gaussian, Inc. access to this program.  By using this program,
 the user acknowledges that Gaussian, Inc. is engaged in the
 business of creating and licensing software in the field of
 computational chemistry and represents and warrants to the
 licensee that it is not a competitor of Gaussian, Inc. and that
 it will not use this program in any manner prohibited above.
 ---------------------------------------------------------------
  

 Cite this work as:
 Gaussian 09, Revision E.01,
 M. J. Frisch, G. W. Trucks, H. B. Schlegel, G. E. Scuseria, 
 M. A. Robb, J. R. Cheeseman, G. Scalmani, V. Barone, B. Mennucci, 
 G. A. Petersson, H. Nakatsuji, M. Caricato, X. Li, H. P. Hratchian, 
 A. F. Izmaylov, J. Bloino, G. Zheng, J. L. Sonnenberg, M. Hada, 
 M. Ehara, K. Toyota, R. Fukuda, J. Hasegawa, M. Ishida, T. Nakajima, 
 Y. Honda, O. Kitao, H. Nakai, T. Vreven, J. A. Montgomery, Jr., 
 J. E. Peralta, F. Ogliaro, M. Bearpark, J. J. Heyd, E. Brothers, 
 K. N. Kudin, V. N. Staroverov, T. Keith, R. Kobayashi, J. Normand, 
 K. Raghavachari, A. Rendell, J. C. Burant, S. S. Iyengar, J. Tomasi, 
 M. Cossi, N. Rega, J. M. Millam, M. Klene, J. E. Knox, J. B. Cross, 
 V. Bakken, C. Adamo, J. Jaramillo, R. Gomperts, R. E. Stratmann, 
 O. Yazyev, A. J. Austin, R. Cammi, C. Pomelli, J. W. Ochterski, 
 R. L. Martin, K. Morokuma, V. G. Zakrzewski, G. A. Voth, 
 P. Salvador, J. J. Dannenberg, S. Dapprich, A. D. Daniels, 
 O. Farkas, J. B. Foresman, J. V. Ortiz, J. Cioslowski, 
 and D. J. Fox, Gaussian, Inc., Wallingford CT, 2013.
 
 ******************************************
 Gaussian 09:  ES64L-G09RevE.01 30-Nov-2015
                30-Oct-2018 
 ******************************************
 %chk=4SulfOxyCf3_a1.M062X_6-31pGd_opt_water.chk
 %mem=196608000
 %nproc=4
 Will use up to    4 processors via shared memory.
 ----------------------------------------------------------------------
 # M062X/Gen 6D SCF=Tight INT(grid=ultrafine) OPT IOP(2/17=4) SCRF=(SMD
 ,Solvent=h2o) maxdisk=2684354560
 ----------------------------------------------------------------------
 1/14=-1,18=20,19=15,26=4,38=1/1,3;
 2/9=110,12=2,17=4,18=5,40=1/2;
 3/5=7,8=2,11=2,16=1,25=1,30=1,70=32201,71=1,72=1,74=-55,75=-5/1,2,3;
 4//1;
 5/5=2,32=2,38=5,53=1/2;
 6/7=2,8=2,9=2,10=2,28=1/1;
 7//1,2,3,16;
 1/14=-1,18=20,19=15,26=4/3(2);
 2/9=110,17=4/2;
 99//99;
 2/9=110,17=4/2;
 3/5=7,6=1,8=2,11=2,16=1,25=1,30=1,70=32205,71=1,72=1,74=-55,75=-5,82=7/1,2,3;
 4/5=5,16=3,69=1/1;
 5/5=2,32=2,38=5,53=1/2;
 7//1,2,3,16;
 1/14=-1,18=20,19=15,26=4/3(-5);
 2/9=110,17=4/2;
 6/7=2,8=2,9=2,10=2,19=2,28=1/1;
 99/9=1/99;
 --------------------------------------
 4SulfOxyCf3_a1.M062X_6-31pGd_opt_water
 --------------------------------------
 Symbolic Z-matrix:
 Charge = -1 Multiplicity = 1
 C                    -2.11712   1.94256  -0.02386 
 C                    -0.79202   1.19505   0.09313 
 C                     0.39854   2.1541   -0.0209 
 N                     1.65725   1.43652   0.08472 
 C                     2.8588    2.07549   0.00505 
 O                     2.8813    3.28517  -0.15698 
 N                     4.01518   1.34927   0.10388 
 C                     5.3705    1.82978   0.03765 
 C                     5.73374   3.18851  -0.1322 
 C                     6.40672   0.88121   0.14803 
 C                     7.74908   1.26289   0.08969 
 C                     8.09037   2.60698  -0.08084 
 C                     7.07991   3.56437  -0.18937 
 H                    -2.95886   1.22338   0.06102 
 H                    -2.1855    2.45528  -1.00704 
 H                    -2.20892   2.69546   0.78774 
 H                    -0.73457   0.43561  -0.71695 
 H                    -0.75628   0.6744    1.07486 
 H                     0.33855   2.91147   0.79176 
 H                     0.35532   2.67336  -1.00384 
 H                     1.64084   0.41334   0.22043 
 H                     5.02039   3.98636  -0.22433 
 H                     6.17379  -0.16823   0.27964 
 H                     8.51864   0.50722   0.17795 
 S                     9.80958   3.11994  -0.16022 
 O                     10.65643   1.87293  -0.46005 
 O                     10.27371   3.38393   1.28004 
 H                     7.33533   4.60837  -0.32006 
 C                     10.44619   4.4613   -1.20643 
 F                     11.82071   4.53299  -1.08202 
 F                     10.12103   4.21033  -2.52553 
 F                     9.88968   5.66226  -0.81047 
 

 GradGradGradGradGradGradGradGradGradGradGradGradGradGradGradGradGradGrad
 Berny optimization.
 Initialization pass.
                           ----------------------------
                           !    Initial Parameters    !
                           ! (Angstroms and Degrees)  !
 --------------------------                            --------------------------
 ! Name  Definition              Value          Derivative Info.                !
 --------------------------------------------------------------------------------
 ! R1    R(1,2)                  1.5259         estimate D2E/DX2                !
 ! R2    R(1,14)                 1.1104         estimate D2E/DX2                !
 ! R3    R(1,15)                 1.1109         estimate D2E/DX2                !
 ! R4    R(1,16)                 1.1108         estimate D2E/DX2                !
 ! R5    R(2,3)                  1.533          estimate D2E/DX2                !
 ! R6    R(2,17)                 1.1119         estimate D2E/DX2                !
 ! R7    R(2,18)                 1.1118         estimate D2E/DX2                !
 ! R8    R(3,4)                  1.4527         estimate D2E/DX2                !
 ! R9    R(3,19)                 1.1125         estimate D2E/DX2                !
 ! R10   R(3,20)                 1.1125         estimate D2E/DX2                !
 ! R11   R(4,5)                  1.3632         estimate D2E/DX2                !
 ! R12   R(4,21)                 1.0323         estimate D2E/DX2                !
 ! R13   R(5,6)                  1.2207         estimate D2E/DX2                !
 ! R14   R(5,7)                  1.3691         estimate D2E/DX2                !
 ! R15   R(7,8)                  1.4395         estimate D2E/DX2                !
 ! R16   R(8,9)                  1.4167         estimate D2E/DX2                !
 ! R17   R(8,10)                 1.4092         estimate D2E/DX2                !
 ! R18   R(9,13)                 1.3988         estimate D2E/DX2                !
 ! R19   R(9,22)                 1.0742         estimate D2E/DX2                !
 ! R20   R(10,11)                1.3968         estimate D2E/DX2                !
 ! R21   R(10,23)                1.083          estimate D2E/DX2                !
 ! R22   R(11,12)                1.3972         estimate D2E/DX2                !
 ! R23   R(11,24)                1.0822         estimate D2E/DX2                !
 ! R24   R(12,13)                1.3962         estimate D2E/DX2                !
 ! R25   R(12,25)                1.7959         estimate D2E/DX2                !
 ! R26   R(13,28)                1.0827         estimate D2E/DX2                !
 ! R27   R(25,26)                1.5369         estimate D2E/DX2                !
 ! R28   R(25,27)                1.5361         estimate D2E/DX2                !
 ! R29   R(25,29)                1.8163         estimate D2E/DX2                !
 ! R30   R(29,30)                1.382          estimate D2E/DX2                !
 ! R31   R(29,31)                1.3816         estimate D2E/DX2                !
 ! R32   R(29,32)                1.3816         estimate D2E/DX2                !
 ! A1    A(2,1,14)             109.5821         estimate D2E/DX2                !
 ! A2    A(2,1,15)             110.328          estimate D2E/DX2                !
 ! A3    A(2,1,16)             110.3515         estimate D2E/DX2                !
 ! A4    A(14,1,15)            108.6574         estimate D2E/DX2                !
 ! A5    A(14,1,16)            108.6924         estimate D2E/DX2                !
 ! A6    A(15,1,16)            109.1899         estimate D2E/DX2                !
 ! A7    A(1,2,3)              111.2378         estimate D2E/DX2                !
 ! A8    A(1,2,17)             108.8815         estimate D2E/DX2                !
 ! A9    A(1,2,18)             108.9668         estimate D2E/DX2                !
 ! A10   A(3,2,17)             109.4492         estimate D2E/DX2                !
 ! A11   A(3,2,18)             109.4915         estimate D2E/DX2                !
 ! A12   A(17,2,18)            108.7723         estimate D2E/DX2                !
 ! A13   A(2,3,4)              111.0058         estimate D2E/DX2                !
 ! A14   A(2,3,19)             109.2494         estimate D2E/DX2                !
 ! A15   A(2,3,20)             109.1195         estimate D2E/DX2                !
 ! A16   A(4,3,19)             109.2621         estimate D2E/DX2                !
 ! A17   A(4,3,20)             109.1747         estimate D2E/DX2                !
 ! A18   A(19,3,20)            108.9996         estimate D2E/DX2                !
 ! A19   A(3,4,5)              121.8648         estimate D2E/DX2                !
 ! A20   A(3,4,21)             119.0378         estimate D2E/DX2                !
 ! A21   A(5,4,21)             119.097          estimate D2E/DX2                !
 ! A22   A(4,5,6)              119.242          estimate D2E/DX2                !
 ! A23   A(4,5,7)              119.4474         estimate D2E/DX2                !
 ! A24   A(6,5,7)              121.3103         estimate D2E/DX2                !
 ! A25   A(5,7,8)              127.9418         estimate D2E/DX2                !
 ! A26   A(7,8,9)              124.5467         estimate D2E/DX2                !
 ! A27   A(7,8,10)             117.6482         estimate D2E/DX2                !
 ! A28   A(9,8,10)             117.805          estimate D2E/DX2                !
 ! A29   A(8,9,13)             120.6213         estimate D2E/DX2                !
 ! A30   A(8,9,22)             123.5298         estimate D2E/DX2                !
 ! A31   A(13,9,22)            115.8488         estimate D2E/DX2                !
 ! A32   A(8,10,11)            121.2975         estimate D2E/DX2                !
 ! A33   A(8,10,23)            120.2416         estimate D2E/DX2                !
 ! A34   A(11,10,23)           118.4609         estimate D2E/DX2                !
 ! A35   A(10,11,12)           120.1801         estimate D2E/DX2                !
 ! A36   A(10,11,24)           119.2885         estimate D2E/DX2                !
 ! A37   A(12,11,24)           120.5314         estimate D2E/DX2                !
 ! A38   A(11,12,13)           119.4953         estimate D2E/DX2                !
 ! A39   A(11,12,25)           120.9318         estimate D2E/DX2                !
 ! A40   A(13,12,25)           119.5728         estimate D2E/DX2                !
 ! A41   A(9,13,12)            120.6005         estimate D2E/DX2                !
 ! A42   A(9,13,28)            119.4098         estimate D2E/DX2                !
 ! A43   A(12,13,28)           119.9897         estimate D2E/DX2                !
 ! A44   A(12,25,26)           107.7195         estimate D2E/DX2                !
 ! A45   A(12,25,27)           107.2719         estimate D2E/DX2                !
 ! A46   A(12,25,29)           124.8851         estimate D2E/DX2                !
 ! A47   A(26,25,27)            98.9675         estimate D2E/DX2                !
 ! A48   A(26,25,29)           107.0799         estimate D2E/DX2                !
 ! A49   A(27,25,29)           107.8939         estimate D2E/DX2                !
 ! A50   A(25,29,30)           109.5756         estimate D2E/DX2                !
 ! A51   A(25,29,31)           109.47           estimate D2E/DX2                !
 ! A52   A(25,29,32)           109.6143         estimate D2E/DX2                !
 ! A53   A(30,29,31)           109.2357         estimate D2E/DX2                !
 ! A54   A(30,29,32)           109.2525         estimate D2E/DX2                !
 ! A55   A(31,29,32)           109.6785         estimate D2E/DX2                !
 ! D1    D(14,1,2,3)           179.9313         estimate D2E/DX2                !
 ! D2    D(14,1,2,17)           59.2362         estimate D2E/DX2                !
 ! D3    D(14,1,2,18)          -59.2652         estimate D2E/DX2                !
 ! D4    D(15,1,2,3)            60.3349         estimate D2E/DX2                !
 ! D5    D(15,1,2,17)          -60.3601         estimate D2E/DX2                !
 ! D6    D(15,1,2,18)         -178.8615         estimate D2E/DX2                !
 ! D7    D(16,1,2,3)           -60.4147         estimate D2E/DX2                !
 ! D8    D(16,1,2,17)          178.8903         estimate D2E/DX2                !
 ! D9    D(16,1,2,18)           60.3889         estimate D2E/DX2                !
 ! D10   D(1,2,3,4)           -179.727          estimate D2E/DX2                !
 ! D11   D(1,2,3,19)            59.7164         estimate D2E/DX2                !
 ! D12   D(1,2,3,20)           -59.3636         estimate D2E/DX2                !
 ! D13   D(17,2,3,4)           -59.3666         estimate D2E/DX2                !
 ! D14   D(17,2,3,19)         -179.9231         estimate D2E/DX2                !
 ! D15   D(17,2,3,20)           60.9968         estimate D2E/DX2                !
 ! D16   D(18,2,3,4)            59.7783         estimate D2E/DX2                !
 ! D17   D(18,2,3,19)          -60.7783         estimate D2E/DX2                !
 ! D18   D(18,2,3,20)         -179.8583         estimate D2E/DX2                !
 ! D19   D(2,3,4,5)            179.6294         estimate D2E/DX2                !
 ! D20   D(2,3,4,21)            -0.1394         estimate D2E/DX2                !
 ! D21   D(19,3,4,5)           -59.8216         estimate D2E/DX2                !
 ! D22   D(19,3,4,21)          120.4096         estimate D2E/DX2                !
 ! D23   D(20,3,4,5)            59.2986         estimate D2E/DX2                !
 ! D24   D(20,3,4,21)         -120.4701         estimate D2E/DX2                !
 ! D25   D(3,4,5,6)              0.1463         estimate D2E/DX2                !
 ! D26   D(3,4,5,7)           -179.6508         estimate D2E/DX2                !
 ! D27   D(21,4,5,6)           179.9149         estimate D2E/DX2                !
 ! D28   D(21,4,5,7)             0.1178         estimate D2E/DX2                !
 ! D29   D(4,5,7,8)            179.6096         estimate D2E/DX2                !
 ! D30   D(6,5,7,8)             -0.1831         estimate D2E/DX2                !
 ! D31   D(5,7,8,9)              0.7812         estimate D2E/DX2                !
 ! D32   D(5,7,8,10)          -179.1406         estimate D2E/DX2                !
 ! D33   D(7,8,9,13)          -179.8145         estimate D2E/DX2                !
 ! D34   D(7,8,9,22)             0.1874         estimate D2E/DX2                !
 ! D35   D(10,8,9,13)            0.1071         estimate D2E/DX2                !
 ! D36   D(10,8,9,22)         -179.891          estimate D2E/DX2                !
 ! D37   D(7,8,10,11)          179.7964         estimate D2E/DX2                !
 ! D38   D(7,8,10,23)           -0.117          estimate D2E/DX2                !
 ! D39   D(9,8,10,11)           -0.1308         estimate D2E/DX2                !
 ! D40   D(9,8,10,23)          179.9559         estimate D2E/DX2                !
 ! D41   D(8,9,13,12)            0.0376         estimate D2E/DX2                !
 ! D42   D(8,9,13,28)          179.9773         estimate D2E/DX2                !
 ! D43   D(22,9,13,12)        -179.9641         estimate D2E/DX2                !
 ! D44   D(22,9,13,28)          -0.0245         estimate D2E/DX2                !
 ! D45   D(8,10,11,12)           0.0093         estimate D2E/DX2                !
 ! D46   D(8,10,11,24)        -179.993          estimate D2E/DX2                !
 ! D47   D(23,10,11,12)        179.9242         estimate D2E/DX2                !
 ! D48   D(23,10,11,24)         -0.0782         estimate D2E/DX2                !
 ! D49   D(10,11,12,13)          0.1384         estimate D2E/DX2                !
 ! D50   D(10,11,12,25)       -179.9391         estimate D2E/DX2                !
 ! D51   D(24,11,12,13)       -179.8592         estimate D2E/DX2                !
 ! D52   D(24,11,12,25)          0.0632         estimate D2E/DX2                !
 ! D53   D(11,12,13,9)          -0.1618         estimate D2E/DX2                !
 ! D54   D(11,12,13,28)        179.899          estimate D2E/DX2                !
 ! D55   D(25,12,13,9)         179.9147         estimate D2E/DX2                !
 ! D56   D(25,12,13,28)         -0.0246         estimate D2E/DX2                !
 ! D57   D(11,12,25,26)         17.6597         estimate D2E/DX2                !
 ! D58   D(11,12,25,27)        -88.0469         estimate D2E/DX2                !
 ! D59   D(11,12,25,29)        144.4332         estimate D2E/DX2                !
 ! D60   D(13,12,25,26)       -162.4179         estimate D2E/DX2                !
 ! D61   D(13,12,25,27)         91.8756         estimate D2E/DX2                !
 ! D62   D(13,12,25,29)        -35.6444         estimate D2E/DX2                !
 ! D63   D(12,25,29,30)       -176.3846         estimate D2E/DX2                !
 ! D64   D(12,25,29,31)        -56.6099         estimate D2E/DX2                !
 ! D65   D(12,25,29,32)         63.7316         estimate D2E/DX2                !
 ! D66   D(26,25,29,30)        -49.3443         estimate D2E/DX2                !
 ! D67   D(26,25,29,31)         70.4305         estimate D2E/DX2                !
 ! D68   D(26,25,29,32)       -169.228          estimate D2E/DX2                !
 ! D69   D(27,25,29,30)         56.3533         estimate D2E/DX2                !
 ! D70   D(27,25,29,31)        176.1281         estimate D2E/DX2                !
 ! D71   D(27,25,29,32)        -63.5305         estimate D2E/DX2                !
 --------------------------------------------------------------------------------
 Trust Radius=3.00D-01 FncErr=1.00D-07 GrdErr=1.00D-06
 Number of steps in this run=    168 maximum allowed number of steps=    192.
 GradGradGradGradGradGradGradGradGradGradGradGradGradGradGradGradGradGrad

                          Input orientation:                          
 ---------------------------------------------------------------------
 Center     Atomic      Atomic             Coordinates (Angstroms)
 Number     Number       Type             X           Y           Z
 ---------------------------------------------------------------------
      1          6           0       -2.117120    1.942560   -0.023860
      2          6           0       -0.792020    1.195050    0.093130
      3          6           0        0.398540    2.154100   -0.020900
      4          7           0        1.657250    1.436520    0.084720
      5          6           0        2.858800    2.075490    0.005050
      6          8           0        2.881300    3.285170   -0.156980
      7          7           0        4.015180    1.349270    0.103880
      8          6           0        5.370500    1.829780    0.037650
      9          6           0        5.733740    3.188510   -0.132200
     10          6           0        6.406720    0.881210    0.148030
     11          6           0        7.749080    1.262890    0.089690
     12          6           0        8.090370    2.606980   -0.080840
     13          6           0        7.079910    3.564370   -0.189370
     14          1           0       -2.958860    1.223380    0.061020
     15          1           0       -2.185500    2.455280   -1.007040
     16          1           0       -2.208920    2.695460    0.787740
     17          1           0       -0.734570    0.435610   -0.716950
     18          1           0       -0.756280    0.674400    1.074860
     19          1           0        0.338550    2.911470    0.791760
     20          1           0        0.355320    2.673360   -1.003840
     21          1           0        1.640840    0.413340    0.220430
     22          1           0        5.020390    3.986360   -0.224330
     23          1           0        6.173790   -0.168230    0.279640
     24          1           0        8.518640    0.507220    0.177950
     25         16           0        9.809580    3.119940   -0.160220
     26          8           0       10.656430    1.872930   -0.460050
     27          8           0       10.273710    3.383930    1.280040
     28          1           0        7.335330    4.608370   -0.320060
     29          6           0       10.446190    4.461300   -1.206430
     30          9           0       11.820710    4.532990   -1.082020
     31          9           0       10.121030    4.210330   -2.525530
     32          9           0        9.889680    5.662260   -0.810470
 ---------------------------------------------------------------------
                    Distance matrix (angstroms):
                    1          2          3          4          5
     1  C    0.000000
     2  C    1.525892   0.000000
     3  C    2.524540   1.533040   0.000000
     4  N    3.809690   2.461159   1.452731   0.000000
     5  C    4.977779   3.756517   2.461652   1.363214   0.000000
     6  O    5.177309   4.233726   2.731654   2.230297   1.220691
     7  N    6.162257   4.809685   3.707210   2.359621   1.369079
     8  C    7.488722   6.195370   4.982870   3.734313   2.523900
     9  C    7.949851   6.827166   5.435692   4.442330   3.085925
    10  C    8.591383   7.205787   6.143860   4.782242   3.746263
    11  C    9.890235   8.541370   7.405196   6.094306   4.958056
    12  C   10.229250   8.995591   7.705384   6.540827   5.259200
    13  C    9.340397   8.225616   6.830662   5.831647   4.480216
    14  H    1.110383   2.167263   3.484980   4.621089   5.879999
    15  H    1.110946   2.177232   2.782165   4.122686   5.158830
    16  H    1.110847   2.177457   2.783131   4.126310   5.165148
    17  H    2.159332   1.111881   2.172932   2.713908   4.015320
    18  H    2.160394   1.111822   2.173433   2.717781   4.021983
    19  H    2.763031   2.170799   1.112486   2.101036   2.769375
    20  H    2.758150   2.169132   1.112506   2.099942   2.764547
    21  H    4.064536   2.558532   2.152161   1.032271   2.071849
    22  H    7.427069   6.455719   4.975948   4.231773   2.894220
    23  H    8.560767   7.100410   6.231938   4.797119   4.012336
    24  H   10.734073   9.336418   8.287809   6.924663   5.875641
    25  S   11.985449  10.777908   9.461497   8.327928   7.030756
    26  O   12.781185  11.481835  10.271135   9.026210   7.814114
    27  O   12.542343  11.342413  10.036130   8.914291   7.636655
    28  H    9.825634   8.824698   7.364237   6.516523   5.153688
    29  C   12.867761  11.775169  10.377086   9.384126   8.045388
    30  F   14.215947  13.099763  11.715420  10.688561   9.356113
    31  F   12.695411  11.620841  10.248320   9.281325   7.981313
    32  F   12.594371  11.613405  10.149500   9.296835   7.934940
                    6          7          8          9         10
     6  O    0.000000
     7  N    2.258637   0.000000
     8  C    2.890010   1.439503   0.000000
     9  C    2.854185   2.528238   1.416665   0.000000
    10  C    4.277925   2.437313   1.409156   2.419724   0.000000
    11  C    5.276907   3.734926   2.445755   2.796219   1.396787
    12  C    5.253584   4.268856   2.831214   2.427863   2.421847
    13  C    4.208008   3.792787   2.445899   1.398826   2.786821
    14  H    6.197255   6.975308   8.351437   8.914054   9.372232
    15  H    5.204208   6.395767   7.653480   8.001083   8.811250
    16  H    5.210623   6.404632   7.665484   8.010945   8.827796
    17  H    4.637680   4.905982   6.307536   7.054036   7.207272
    18  H    4.643871   4.915799   6.320454   7.063859   7.225673
    19  H    2.739587   4.053549   5.201851   5.480742   6.431099
    20  H    2.733507   4.046583   5.191181   5.472891   6.415454
    21  H    3.150966   2.554807   3.993754   4.957595   4.789338
    22  H    2.252090   2.841199   2.200465   1.074207   3.420895
    23  H    4.791357   2.644484   2.166997   3.410419   1.083006
    24  H    6.293551   4.582105   3.417548   3.878296   2.144987
    25  S    6.930251   6.064659   4.626996   4.076513   4.084897
    26  O    7.908155   6.685689   5.309484   5.105988   4.406053
    27  O    7.531434   6.685237   5.291539   4.758565   4.743276
    28  H    4.649283   4.671708   3.421853   2.148577   3.869515
    29  C    7.727366   7.263576   5.851091   4.998115   5.564973
    30  F    9.073357   8.512857   7.082811   6.305631   6.645285
    31  F    7.673307   7.237463   5.899529   5.101025   5.659246
    32  F    7.429334   7.344908   5.985833   4.883782   5.992343
                   11         12         13         14         15
    11  C    0.000000
    12  C    1.397189   0.000000
    13  C    2.412980   1.396211   0.000000
    14  H   10.708051  11.136425  10.311151   0.000000
    15  H   10.065808  10.318642   9.367310   1.804554   0.000000
    16  H   10.084706  10.336229   9.380411   1.804869   1.810931
    17  H    8.561973   9.110381   8.434072   2.484610   2.503681
    18  H    8.582426   9.128731   8.447253   2.486083   3.090067
    19  H    7.624085   7.806719   6.843598   3.775784   3.132829
    20  H    7.606111   7.790208   6.832084   3.770962   2.550164
    21  H    6.168422   6.819036   6.299239   4.673202   4.507447
    22  H    3.868029   3.368688   2.102598   8.448900   7.408218
    23  H    2.136755   3.391904   3.869538   9.240653   8.855285
    24  H    1.082150   2.158560   3.398681  11.500416  10.944302
    25  S    2.785094   1.795860   2.765767  12.910420  12.043289
    26  O    3.021100   2.695792   3.965568  13.640731  12.866759
    27  O    3.505638   2.687493   3.520239  13.463094  12.701379
    28  H    3.395780   2.152411   1.082707  10.843142   9.785394
    29  C    4.379972   3.202397   3.629151  13.848679  12.791539
    30  F    5.352068   4.315937   4.920390  15.188672  14.159676
    31  F    4.599231   3.559610   3.888871  13.663661  12.523446
    32  F    4.974627   3.620029   3.561140  13.621605  12.495332
                   16         17         18         19         20
    16  H    0.000000
    17  H    3.089453   0.000000
    18  H    2.505451   1.807782   0.000000
    19  H    2.556615   3.091549   2.506647   0.000000
    20  H    3.128190   2.505532   3.090710   1.811396   0.000000
    21  H    4.511160   2.553772   2.558200   2.874549   2.873863
    22  H    7.413072   6.780123   6.784312   4.909934   4.908613
    23  H    8.872920   7.005944   7.026256   6.617918   6.601254
    24  H   10.965436   9.296659   9.319685   8.548161   8.528106
    25  S   12.063298  10.894709  10.915287   9.521036   9.502324
    26  O   12.951863  11.484196  11.577667  10.445298  10.346461
    27  O   12.511291  11.569909  11.359768   9.958365  10.202719
    28  H    9.796895   9.093555   9.104728   7.284953   7.275463
    29  C   12.932390  11.893493  12.043265  10.419171  10.250045
    30  F   14.272457  13.211997  13.331224  11.746505  11.615486
    31  F   12.856915  11.634583  11.990892  10.410973  10.002345
    32  F   12.559152  11.840663  11.906707  10.067675   9.993745
                   21         22         23         24         25
    21  H    0.000000
    22  H    4.938182   0.000000
    23  H    4.570489   4.341075   0.000000
    24  H    6.878572   4.950151   2.442313   0.000000
    25  S    8.613878   4.867354   4.921840   2.933801   0.000000
    26  O    9.158292   6.023877   4.980716   2.615789   1.536908
    27  O    9.190953   5.497583   5.516157   3.545467   1.536052
    28  H    7.093492   2.398960   4.952244   4.297402   2.891865
    29  C    9.795718   5.534383   6.472585   4.611584   1.816335
    30  F   11.058827   6.875957   7.472837   5.357053   2.625085
    31  F    9.688707   5.600198   6.528512   4.856900   2.623098
    32  F    9.831443   5.182874   6.999342   5.425050   2.625382
                   26         27         28         29         30
    26  O    0.000000
    27  O    2.336131   0.000000
    28  H    4.304873   3.562815   0.000000
    29  C    2.702026   2.715328   3.238013   0.000000
    30  F    2.969565   3.048422   4.550264   1.381999   0.000000
    31  F    3.164854   3.897257   3.575284   1.381571   2.253163
    32  F    3.881974   3.115846   2.806402   1.381591   2.253412
                   31         32
    31  F    0.000000
    32  F    2.258994   0.000000
 Stoichiometry    C11H12F3N2O3S(1-)
 Framework group  C1[X(C11H12F3N2O3S)]
 Deg. of freedom    90
 Full point group                 C1      NOp   1
 Largest Abelian subgroup         C1      NOp   1
 Largest concise Abelian subgroup C1      NOp   1
                         Standard orientation:                         
 ---------------------------------------------------------------------
 Center     Atomic      Atomic             Coordinates (Angstroms)
 Number     Number       Type             X           Y           Z
 ---------------------------------------------------------------------
      1          6           0       -8.414968   -0.875918    0.013455
      2          6           0       -7.270014    0.117724    0.186963
      3          6           0       -5.911924   -0.553170   -0.049054
      4          7           0       -4.825408    0.395560    0.123637
      5          6           0       -3.520623    0.030731   -0.027320
      6          8           0       -3.254286   -1.124443   -0.318393
      7          7           0       -2.535475    0.963970    0.154134
      8          6           0       -1.111643    0.779707    0.049645
      9          6           0       -0.482499   -0.444343   -0.286238
     10          6           0       -0.287775    1.895011    0.300763
     11          6           0        1.103777    1.800930    0.224955
     12          6           0        1.708659    0.585480   -0.105099
     13          6           0        0.911580   -0.531924   -0.360982
     14          1           0       -9.383374   -0.362613    0.191383
     15          1           0       -8.315836   -1.709813    0.740774
     16          1           0       -8.415141   -1.288917   -1.017764
     17          1           0       -7.304830    0.530201    1.218917
     18          1           0       -7.402526    0.951646   -0.536337
     19          1           0       -5.880170   -0.963356   -1.082671
     20          1           0       -5.786920   -1.387791    0.675827
     21          1           0       -5.048026    1.372692    0.371099
     22          1           0       -1.020633   -1.349830   -0.497014
     23          1           0       -0.727117    2.850317    0.560127
     24          1           0        1.705329    2.678108    0.424312
     25         16           0        3.495841    0.441342   -0.206667
     26          8           0        4.104843    1.642420    0.534017
     27          8           0        3.902601    0.812946   -1.640513
     28          1           0        1.371824   -1.477349   -0.619058
     29          6           0        4.449131   -1.025652    0.281432
     30          9           0        5.799901   -0.765249    0.149020
     31          9           0        4.172630   -1.337199    1.598711
     32          9           0        4.108878   -2.090920   -0.529878
 ---------------------------------------------------------------------
 Rotational constants (GHZ):      1.0194536      0.0888276      0.0849336
 General basis read from cards:  (6D, 7F)
 There are   408 symmetry adapted cartesian basis functions of A   symmetry.
 There are   408 symmetry adapted basis functions of A   symmetry.
   408 basis functions,   712 primitive gaussians,   408 cartesian basis functions
    80 alpha electrons       80 beta electrons
       nuclear repulsion energy      1675.6790292279 Hartrees.
 NAtoms=   32 NActive=   32 NUniq=   32 SFac= 1.00D+00 NAtFMM=   60 NAOKFM=F Big=F
 Integral buffers will be    131072 words long.
 Raffenetti 2 integral format.
 Two-electron integral symmetry is turned on.
 ------------------------------------------------------------------------------
 Polarizable Continuum Model (PCM)
 =================================
 Model                : PCM (using non-symmetric T matrix).
 Atomic radii         : SMD-Coulomb.
 Polarization charges : Total charges.
 Charge compensation  : None.
 Solution method      : On-the-fly selection.
 Cavity type          : VdW (van der Waals Surface) (Alpha=1.000).
 Cavity algorithm     : GePol (No added spheres)
                        Default sphere list used, NSphG=   32.
                        Lebedev-Laikov grids with approx.  5.0 points / Ang**2.
                        Smoothing algorithm: York/Karplus (Gamma=1.0000).
                        Polarization charges: spherical gaussians, with
                                              point-specific exponents (IZeta= 3).
                        Self-potential: point-specific (ISelfS= 7).
                        Self-field    : sphere-specific E.n sum rule (ISelfD= 2).
 1st derivatives      : Analytical E(r).r(x)/FMM algorithm (CHGder, D1EAlg=3).
                        Cavity 1st derivative terms included.
 Solvent              : Water, Eps=  78.355300 Eps(inf)=   1.777849
 ------------------------------------------------------------------------------
 ------------------------------------------------------------------------------
 Atomic radii for non-electrostatic terms: SMD-CDS.
 ------------------------------------------------------------------------------
 Nuclear repulsion after PCM non-electrostatic terms =     1675.6884757372 Hartrees.
 One-electron integrals computed using PRISM.
 NBasis=   408 RedAO= T EigKep=  1.25D-06  NBF=   408
 NBsUse=   407 1.00D-06 EigRej=  9.17D-07 NBFU=   407
 ExpMin= 4.05D-02 ExpMax= 2.19D+04 ExpMxC= 3.30D+03 IAcc=3 IRadAn=         5 AccDes= 0.00D+00
 Harris functional with IExCor= 1009 and IRadAn=       5 diagonalized for initial guess.
 HarFok:  IExCor= 1009 AccDes= 0.00D+00 IRadAn=         5 IDoV= 1 UseB2=F ITyADJ=14
 ICtDFT=  3500011 ScaDFX=  1.000000  1.000000  1.000000  1.000000
 FoFCou: FMM=F IPFlag=           0 FMFlag=      100000 FMFlg1=           0
         NFxFlg=           0 DoJE=T BraDBF=F KetDBF=T FulRan=T
         wScrn=  0.000000 ICntrl=     500 IOpCl=  0 I1Cent=   200000004 NGrid=           0
         NMat0=    1 NMatS0=      1 NMatT0=    0 NMatD0=    1 NMtDS0=    0 NMtDT0=    0
 Petite list used in FoFCou.
 Requested convergence on RMS density matrix=1.00D-08 within 128 cycles.
 Requested convergence on MAX density matrix=1.00D-06.
 Requested convergence on             energy=1.00D-06.
 No special actions if energy rises.
 Inv3:  Mode=1 IEnd=    18840108.
 Iteration    1 A*A^-1 deviation from unit magnitude is 6.88D-15 for    626.
 Iteration    1 A*A^-1 deviation from orthogonality  is 4.12D-15 for   2370    607.
 Iteration    1 A^-1*A deviation from unit magnitude is 5.77D-15 for    613.
 Iteration    1 A^-1*A deviation from orthogonality  is 2.29D-09 for   2320   2309.
 Iteration    2 A*A^-1 deviation from unit magnitude is 1.03D-14 for    613.
 Iteration    2 A*A^-1 deviation from orthogonality  is 4.86D-15 for   2337    612.
 Iteration    2 A^-1*A deviation from unit magnitude is 1.11D-15 for    609.
 Iteration    2 A^-1*A deviation from orthogonality  is 5.26D-16 for   2472    606.
 Error on total polarization charges =  0.06400
 SCF Done:  E(RM062X) =  -1458.90434391     A.U. after   18 cycles
            NFock= 18  Conv=0.37D-08     -V/T= 2.0075
 SMD-CDS (non-electrostatic) energy       (kcal/mol) =       5.93
 (included in total energy above)

 **********************************************************************

            Population analysis using the SCF density.

 **********************************************************************

 Orbital symmetries:
       Occupied  (A) (A) (A) (A) (A) (A) (A) (A) (A) (A) (A) (A)
                 (A) (A) (A) (A) (A) (A) (A) (A) (A) (A) (A) (A)
                 (A) (A) (A) (A) (A) (A) (A) (A) (A) (A) (A) (A)
                 (A) (A) (A) (A) (A) (A) (A) (A) (A) (A) (A) (A)
                 (A) (A) (A) (A) (A) (A) (A) (A) (A) (A) (A) (A)
                 (A) (A) (A) (A) (A) (A) (A) (A) (A) (A) (A) (A)
                 (A) (A) (A) (A) (A) (A) (A) (A)
       Virtual   (A) (A) (A) (A) (A) (A) (A) (A) (A) (A) (A) (A)
                 (A) (A) (A) (A) (A) (A) (A) (A) (A) (A) (A) (A)
                 (A) (A) (A) (A) (A) (A) (A) (A) (A) (A) (A) (A)
                 (A) (A) (A) (A) (A) (A) (A) (A) (A) (A) (A) (A)
                 (A) (A) (A) (A) (A) (A) (A) (A) (A) (A) (A) (A)
                 (A) (A) (A) (A) (A) (A) (A) (A) (A) (A) (A) (A)
                 (A) (A) (A) (A) (A) (A) (A) (A) (A) (A) (A) (A)
                 (A) (A) (A) (A) (A) (A) (A) (A) (A) (A) (A) (A)
                 (A) (A) (A) (A) (A) (A) (A) (A) (A) (A) (A) (A)
                 (A) (A) (A) (A) (A) (A) (A) (A) (A) (A) (A) (A)
                 (A) (A) (A) (A) (A) (A) (A) (A) (A) (A) (A) (A)
                 (A) (A) (A) (A) (A) (A) (A) (A) (A) (A) (A) (A)
                 (A) (A) (A) (A) (A) (A) (A) (A) (A) (A) (A) (A)
                 (A) (A) (A) (A) (A) (A) (A) (A) (A) (A) (A) (A)
                 (A) (A) (A) (A) (A) (A) (A) (A) (A) (A) (A) (A)
                 (A) (A) (A) (A) (A) (A) (A) (A) (A) (A) (A) (A)
                 (A) (A) (A) (A) (A) (A) (A) (A) (A) (A) (A) (A)
                 (A) (A) (A) (A) (A) (A) (A) (A) (A) (A) (A) (A)
                 (A) (A) (A) (A) (A) (A) (A) (A) (A) (A) (A) (A)
                 (A) (A) (A) (A) (A) (A) (A) (A) (A) (A) (A) (A)
                 (A) (A) (A) (A) (A) (A) (A) (A) (A) (A) (A) (A)
                 (A) (A) (A) (A) (A) (A) (A) (A) (A) (A) (A) (A)
                 (A) (A) (A) (A) (A) (A) (A) (A) (A) (A) (A) (A)
                 (A) (A) (A) (A) (A) (A) (A) (A) (A) (A) (A) (A)
                 (A) (A) (A) (A) (A) (A) (A) (A) (A) (A) (A) (A)
                 (A) (A) (A) (A) (A) (A) (A) (A) (A) (A) (A) (A)
                 (A) (A) (A) (A) (A) (A) (A) (A) (A) (A) (A) (A)
                 (A) (A) (A)
 The electronic state is 1-A.
 Alpha  occ. eigenvalues --  -90.18381 -25.35487 -25.35167 -25.35150 -19.65978
 Alpha  occ. eigenvalues --  -19.65938 -19.59081 -14.76516 -14.71327 -10.88912
 Alpha  occ. eigenvalues --  -10.64995 -10.61294 -10.60504 -10.58345 -10.58005
 Alpha  occ. eigenvalues --  -10.57276 -10.55946 -10.55214 -10.54201 -10.53258
 Alpha  occ. eigenvalues --   -8.49924  -6.42066  -6.41982  -6.41910  -1.48892
 Alpha  occ. eigenvalues --   -1.41130  -1.41097  -1.22567  -1.15963  -1.09749
 Alpha  occ. eigenvalues --   -1.01054  -0.99207  -0.94771  -0.91451  -0.87273
 Alpha  occ. eigenvalues --   -0.85746  -0.85050  -0.79477  -0.76143  -0.72804
 Alpha  occ. eigenvalues --   -0.72433  -0.71918  -0.70665  -0.67005  -0.66333
 Alpha  occ. eigenvalues --   -0.64122  -0.61151  -0.60842  -0.60212  -0.58353
 Alpha  occ. eigenvalues --   -0.57683  -0.57132  -0.56225  -0.55640  -0.54940
 Alpha  occ. eigenvalues --   -0.54468  -0.53861  -0.52709  -0.52153  -0.50297
 Alpha  occ. eigenvalues --   -0.49799  -0.49721  -0.47089  -0.46334  -0.45408
 Alpha  occ. eigenvalues --   -0.44343  -0.42676  -0.41895  -0.41314  -0.40392
 Alpha  occ. eigenvalues --   -0.39837  -0.39029  -0.38815  -0.37407  -0.35403
 Alpha  occ. eigenvalues --   -0.35269  -0.32155  -0.30768  -0.28405  -0.24393
 Alpha virt. eigenvalues --   -0.04708  -0.02099   0.00908   0.01521   0.02557
 Alpha virt. eigenvalues --    0.02700   0.03120   0.03904   0.04123   0.04869
 Alpha virt. eigenvalues --    0.04951   0.05360   0.05608   0.06564   0.07099
 Alpha virt. eigenvalues --    0.07242   0.07551   0.07883   0.08058   0.08386
 Alpha virt. eigenvalues --    0.08778   0.09322   0.10015   0.10267   0.10626
 Alpha virt. eigenvalues --    0.10963   0.11177   0.12013   0.12477   0.13022
 Alpha virt. eigenvalues --    0.13358   0.13803   0.14141   0.14636   0.14793
 Alpha virt. eigenvalues --    0.15524   0.16217   0.16661   0.16868   0.17044
 Alpha virt. eigenvalues --    0.17565   0.18005   0.18627   0.19055   0.19590
 Alpha virt. eigenvalues --    0.20009   0.20453   0.21174   0.21519   0.21765
 Alpha virt. eigenvalues --    0.22024   0.22344   0.23291   0.23369   0.23867
 Alpha virt. eigenvalues --    0.24120   0.24507   0.24916   0.25128   0.25322
 Alpha virt. eigenvalues --    0.25974   0.26289   0.26645   0.26656   0.27490
 Alpha virt. eigenvalues --    0.27625   0.28015   0.28671   0.29679   0.29927
 Alpha virt. eigenvalues --    0.30229   0.30639   0.31064   0.31111   0.31535
 Alpha virt. eigenvalues --    0.32138   0.32663   0.33022   0.33115   0.33353
 Alpha virt. eigenvalues --    0.33720   0.33853   0.34141   0.34804   0.35510
 Alpha virt. eigenvalues --    0.35844   0.35929   0.36345   0.36787   0.37357
 Alpha virt. eigenvalues --    0.37657   0.38650   0.38986   0.39261   0.39293
 Alpha virt. eigenvalues --    0.39926   0.40515   0.41155   0.42570   0.42740
 Alpha virt. eigenvalues --    0.43999   0.44476   0.45156   0.45740   0.46028
 Alpha virt. eigenvalues --    0.47801   0.48036   0.49616   0.51683   0.53538
 Alpha virt. eigenvalues --    0.53874   0.55656   0.57596   0.59268   0.60665
 Alpha virt. eigenvalues --    0.61681   0.64569   0.66289   0.67329   0.70196
 Alpha virt. eigenvalues --    0.70480   0.71086   0.73046   0.73279   0.74901
 Alpha virt. eigenvalues --    0.75530   0.75975   0.76458   0.77707   0.78814
 Alpha virt. eigenvalues --    0.78936   0.80074   0.80604   0.82213   0.82602
 Alpha virt. eigenvalues --    0.83907   0.84594   0.85034   0.86614   0.87341
 Alpha virt. eigenvalues --    0.88517   0.89996   0.90200   0.91382   0.92860
 Alpha virt. eigenvalues --    0.96303   0.97395   0.97847   0.98869   0.99217
 Alpha virt. eigenvalues --    1.00202   1.01050   1.03220   1.03706   1.04775
 Alpha virt. eigenvalues --    1.06342   1.06611   1.09087   1.10319   1.10691
 Alpha virt. eigenvalues --    1.12135   1.12516   1.12957   1.13413   1.13506
 Alpha virt. eigenvalues --    1.14500   1.15516   1.17842   1.19068   1.20324
 Alpha virt. eigenvalues --    1.22251   1.22913   1.23404   1.25455   1.26301
 Alpha virt. eigenvalues --    1.27905   1.29150   1.31816   1.32418   1.34451
 Alpha virt. eigenvalues --    1.35366   1.35531   1.36897   1.37492   1.38815
 Alpha virt. eigenvalues --    1.39136   1.40670   1.41179   1.42513   1.42718
 Alpha virt. eigenvalues --    1.43091   1.44759   1.46159   1.47786   1.48179
 Alpha virt. eigenvalues --    1.48491   1.49814   1.51023   1.51621   1.53065
 Alpha virt. eigenvalues --    1.55043   1.56578   1.57397   1.58690   1.61391
 Alpha virt. eigenvalues --    1.61867   1.62222   1.64568   1.66116   1.67538
 Alpha virt. eigenvalues --    1.69635   1.70279   1.70951   1.71269   1.72128
 Alpha virt. eigenvalues --    1.74224   1.75134   1.77624   1.80512   1.83528
 Alpha virt. eigenvalues --    1.83933   1.84517   1.85147   1.85816   1.86090
 Alpha virt. eigenvalues --    1.86688   1.86900   1.88170   1.89034   1.90073
 Alpha virt. eigenvalues --    1.91209   1.92118   1.92984   1.93846   1.94401
 Alpha virt. eigenvalues --    1.95501   1.96426   1.96692   1.97645   1.98296
 Alpha virt. eigenvalues --    1.98591   1.99484   2.00363   2.00884   2.01612
 Alpha virt. eigenvalues --    2.03510   2.03787   2.05170   2.05474   2.06569
 Alpha virt. eigenvalues --    2.07476   2.07910   2.08035   2.13051   2.14175
 Alpha virt. eigenvalues --    2.15240   2.16572   2.17199   2.18691   2.19725
 Alpha virt. eigenvalues --    2.21521   2.21925   2.22481   2.24674   2.26167
 Alpha virt. eigenvalues --    2.27029   2.27646   2.28522   2.29277   2.30690
 Alpha virt. eigenvalues --    2.30934   2.32156   2.32928   2.37886   2.40402
 Alpha virt. eigenvalues --    2.41090   2.42190   2.44391   2.52390   2.58956
 Alpha virt. eigenvalues --    2.59090   2.60882   2.66338   2.66876   2.67301
 Alpha virt. eigenvalues --    2.68865   2.72221   2.73363   2.74735   2.76299
 Alpha virt. eigenvalues --    2.77031   2.79295   2.80212   2.80498   2.82608
 Alpha virt. eigenvalues --    2.85907   2.87411   2.92103   3.00709   3.07950
 Alpha virt. eigenvalues --    3.13797   3.14440   3.14724   3.16574   3.28762
 Alpha virt. eigenvalues --    3.34222   3.41471   4.00150   4.17502   4.17748
 Alpha virt. eigenvalues --    4.26842   4.28248   4.30382   4.37872   4.39087
 Alpha virt. eigenvalues --    4.40915   4.42855   4.44089   4.48892   4.50800
 Alpha virt. eigenvalues --    4.51531   4.59486   4.66087   4.76879   5.66423
 Alpha virt. eigenvalues --    5.83410   6.31675
          Condensed to atoms (all electrons):
               1          2          3          4          5          6
     1  C    5.668642  -0.089823   0.078085  -0.005871  -0.072946  -0.005101
     2  C   -0.089823   6.236230  -0.502816  -0.063650   0.185643   0.022186
     3  C    0.078085  -0.502816   7.365455   0.269533  -0.639633  -0.105528
     4  N   -0.005871  -0.063650   0.269533   7.694579   0.458082  -0.244461
     5  C   -0.072946   0.185643  -0.639633   0.458082   7.370452   0.441280
     6  O   -0.005101   0.022186  -0.105528  -0.244461   0.441280   8.769186
     7  N   -0.003831   0.009440  -0.105279  -0.312069   0.351285  -0.125201
     8  C   -0.018908   0.008412  -0.687508  -0.229658  -1.105089  -0.252659
     9  C    0.004913   0.001468   0.149404   0.065936   1.102579   0.334089
    10  C   -0.005885   0.007667  -0.314797  -0.113250  -3.140902  -0.140043
    11  C    0.000411  -0.000686   0.047805   0.004606   1.058758   0.008606
    12  C   -0.000340   0.000511  -0.048235  -0.002367  -0.814089   0.022776
    13  C    0.001001   0.000810   0.037241   0.032133   0.095060   0.078551
    14  H    0.414562  -0.089462   0.027779   0.000425  -0.002481   0.000006
    15  H    0.417302  -0.064323  -0.008729   0.000446  -0.000561  -0.000050
    16  H    0.415992  -0.064016  -0.007964   0.000478  -0.000347  -0.000049
    17  H   -0.035827   0.425952  -0.073487   0.005789  -0.006842  -0.000198
    18  H   -0.034162   0.423963  -0.070686   0.005609  -0.008995  -0.000179
    19  H    0.001571  -0.040488   0.422432  -0.056540  -0.022259   0.003410
    20  H    0.004558  -0.046090   0.439340  -0.057520  -0.032676   0.003696
    21  H   -0.004437   0.004459  -0.084805   0.245646   0.030646   0.010741
    22  H    0.000002   0.000074   0.004261   0.000300   0.019546  -0.003253
    23  H   -0.000001   0.000038  -0.000815  -0.000395  -0.017246   0.000117
    24  H    0.000000  -0.000000   0.000029   0.000016   0.003886  -0.000001
    25  S   -0.000007  -0.000012  -0.002000   0.000315  -0.093944   0.000739
    26  O   -0.000000  -0.000000  -0.000013   0.000003  -0.002874  -0.000000
    27  O   -0.000000  -0.000000  -0.000022   0.000002  -0.003782  -0.000004
    28  H   -0.000000   0.000001  -0.000037  -0.000013  -0.001457   0.000358
    29  C    0.000000   0.000002   0.000098  -0.000041   0.008229   0.000016
    30  F    0.000000   0.000000   0.000000  -0.000000   0.000036   0.000000
    31  F   -0.000000  -0.000000  -0.000001   0.000000  -0.000272  -0.000001
    32  F   -0.000000   0.000000  -0.000002   0.000000  -0.000526  -0.000000
               7          8          9         10         11         12
     1  C   -0.003831  -0.018908   0.004913  -0.005885   0.000411  -0.000340
     2  C    0.009440   0.008412   0.001468   0.007667  -0.000686   0.000511
     3  C   -0.105279  -0.687508   0.149404  -0.314797   0.047805  -0.048235
     4  N   -0.312069  -0.229658   0.065936  -0.113250   0.004606  -0.002367
     5  C    0.351285  -1.105089   1.102579  -3.140902   1.058758  -0.814089
     6  O   -0.125201  -0.252659   0.334089  -0.140043   0.008606   0.022776
     7  N    7.745641   0.507446  -0.319478  -0.163290   0.116917  -0.043180
     8  C    0.507446  14.855522   0.299592  -4.305373   6.050378  -4.823272
     9  C   -0.319478   0.299592   9.621600  -5.101543   0.339626  -3.126036
    10  C   -0.163290  -4.305373  -5.101543  23.643257 -11.842840   3.980499
    11  C    0.116917   6.050378   0.339626 -11.842840  31.492707  -5.636931
    12  C   -0.043180  -4.823272  -3.126036   3.980499  -5.636931  20.010351
    13  C   -0.025376  -3.718321   2.043589   3.103729 -13.088751  -0.922453
    14  H    0.000005  -0.000047   0.000004  -0.000003  -0.000000  -0.000000
    15  H    0.000019  -0.000011  -0.000025   0.000002   0.000000  -0.000000
    16  H    0.000018  -0.000022  -0.000021   0.000001   0.000000  -0.000000
    17  H   -0.000040  -0.000628  -0.000151   0.000114   0.000005  -0.000002
    18  H   -0.000019  -0.000735  -0.000140   0.000104   0.000004  -0.000001
    19  H   -0.001117  -0.001500   0.001172   0.000070  -0.000086   0.000024
    20  H   -0.001118  -0.005200   0.002527  -0.001058  -0.000026   0.000012
    21  H    0.026133   0.021089  -0.005136   0.006191  -0.000631   0.000170
    22  H   -0.005513  -0.038655   0.361455   0.001595  -0.008353   0.018076
    23  H    0.001982  -0.059666  -0.016326   0.426687  -0.070489   0.044943
    24  H    0.000813   0.040014   0.004456  -0.083244   0.354673  -0.011163
    25  S    0.001524  -0.839057  -0.076137   1.376119  -2.575784  -1.757811
    26  O    0.000132  -0.110124  -0.014953   0.207388  -0.859360  -0.003532
    27  O   -0.000092  -0.064814   0.027305   0.071353  -0.427972  -0.473139
    28  H   -0.000835   0.000635  -0.104800  -0.039824   0.111065   0.118549
    29  C   -0.000250   0.133339  -0.121838  -0.140829   0.936154   0.614421
    30  F   -0.000001   0.002842   0.001651  -0.003081   0.020494   0.059047
    31  F    0.000003  -0.009373   0.001677   0.016164  -0.039730  -0.093304
    32  F   -0.000009  -0.004756   0.037478   0.007790  -0.118785  -0.240544
              13         14         15         16         17         18
     1  C    0.001001   0.414562   0.417302   0.415992  -0.035827  -0.034162
     2  C    0.000810  -0.089462  -0.064323  -0.064016   0.425952   0.423963
     3  C    0.037241   0.027779  -0.008729  -0.007964  -0.073487  -0.070686
     4  N    0.032133   0.000425   0.000446   0.000478   0.005789   0.005609
     5  C    0.095060  -0.002481  -0.000561  -0.000347  -0.006842  -0.008995
     6  O    0.078551   0.000006  -0.000050  -0.000049  -0.000198  -0.000179
     7  N   -0.025376   0.000005   0.000019   0.000018  -0.000040  -0.000019
     8  C   -3.718321  -0.000047  -0.000011  -0.000022  -0.000628  -0.000735
     9  C    2.043589   0.000004  -0.000025  -0.000021  -0.000151  -0.000140
    10  C    3.103729  -0.000003   0.000002   0.000001   0.000114   0.000104
    11  C  -13.088751  -0.000000   0.000000   0.000000   0.000005   0.000004
    12  C   -0.922453  -0.000000  -0.000000  -0.000000  -0.000002  -0.000001
    13  C   16.050477   0.000000  -0.000001  -0.000000  -0.000002  -0.000007
    14  H    0.000000   0.483860  -0.024039  -0.023992  -0.003005  -0.002983
    15  H   -0.000001  -0.024039   0.488614  -0.028472  -0.004583   0.003801
    16  H   -0.000000  -0.023992  -0.028472   0.488576   0.003808  -0.004570
    17  H   -0.000002  -0.003005  -0.004583   0.003808   0.493777  -0.030946
    18  H   -0.000007  -0.002983   0.003801  -0.004570  -0.030946   0.493585
    19  H    0.000069  -0.000059  -0.000327   0.002632   0.003803  -0.005587
    20  H    0.000247  -0.000056   0.002664  -0.000335  -0.005575   0.003812
    21  H   -0.000558  -0.000003   0.000000   0.000000   0.000488   0.000486
    22  H   -0.044510  -0.000000   0.000000   0.000000  -0.000000  -0.000000
    23  H    0.002166  -0.000000   0.000000   0.000000  -0.000000  -0.000000
    24  H    0.006898  -0.000000   0.000000   0.000000   0.000000   0.000000
    25  S    1.937633  -0.000000  -0.000000  -0.000000  -0.000000   0.000000
    26  O    0.414667  -0.000000  -0.000000  -0.000000   0.000000  -0.000000
    27  O    0.443459  -0.000000   0.000000  -0.000000  -0.000000   0.000000
    28  H    0.219860  -0.000000   0.000000   0.000000   0.000000  -0.000000
    29  C   -1.018007  -0.000000   0.000000  -0.000000   0.000000  -0.000000
    30  F   -0.012788   0.000000   0.000000  -0.000000  -0.000000   0.000000
    31  F    0.027267  -0.000000  -0.000000  -0.000000   0.000000  -0.000000
    32  F    0.237243  -0.000000   0.000000  -0.000000   0.000000   0.000000
              19         20         21         22         23         24
     1  C    0.001571   0.004558  -0.004437   0.000002  -0.000001   0.000000
     2  C   -0.040488  -0.046090   0.004459   0.000074   0.000038  -0.000000
     3  C    0.422432   0.439340  -0.084805   0.004261  -0.000815   0.000029
     4  N   -0.056540  -0.057520   0.245646   0.000300  -0.000395   0.000016
     5  C   -0.022259  -0.032676   0.030646   0.019546  -0.017246   0.003886
     6  O    0.003410   0.003696   0.010741  -0.003253   0.000117  -0.000001
     7  N   -0.001117  -0.001118   0.026133  -0.005513   0.001982   0.000813
     8  C   -0.001500  -0.005200   0.021089  -0.038655  -0.059666   0.040014
     9  C    0.001172   0.002527  -0.005136   0.361455  -0.016326   0.004456
    10  C    0.000070  -0.001058   0.006191   0.001595   0.426687  -0.083244
    11  C   -0.000086  -0.000026  -0.000631  -0.008353  -0.070489   0.354673
    12  C    0.000024   0.000012   0.000170   0.018076   0.044943  -0.011163
    13  C    0.000069   0.000247  -0.000558  -0.044510   0.002166   0.006898
    14  H   -0.000059  -0.000056  -0.000003  -0.000000  -0.000000  -0.000000
    15  H   -0.000327   0.002664   0.000000   0.000000   0.000000   0.000000
    16  H    0.002632  -0.000335   0.000000   0.000000   0.000000   0.000000
    17  H    0.003803  -0.005575   0.000488  -0.000000  -0.000000   0.000000
    18  H   -0.005587   0.003812   0.000486  -0.000000  -0.000000   0.000000
    19  H    0.511996  -0.041498   0.002117  -0.000001  -0.000000  -0.000000
    20  H   -0.041498   0.512134   0.002123   0.000000   0.000000  -0.000000
    21  H    0.002117   0.002123   0.276576   0.000001   0.000003  -0.000000
    22  H   -0.000001   0.000000   0.000001   0.428482  -0.000095   0.000010
    23  H   -0.000000   0.000000   0.000003  -0.000095   0.435892  -0.003831
    24  H   -0.000000  -0.000000  -0.000000   0.000010  -0.003831   0.413773
    25  S   -0.000000   0.000001   0.000001  -0.001596  -0.001463  -0.011311
    26  O    0.000000  -0.000000   0.000000   0.000015   0.000093   0.003261
    27  O   -0.000000   0.000000  -0.000000   0.000013   0.000006  -0.000789
    28  H   -0.000000  -0.000000   0.000000  -0.004390   0.000011  -0.000115
    29  C    0.000000  -0.000000   0.000000   0.000285   0.000040   0.000083
    30  F   -0.000000   0.000000   0.000000  -0.000000  -0.000000   0.000006
    31  F    0.000000  -0.000000   0.000000  -0.000003   0.000000  -0.000014
    32  F    0.000000  -0.000000  -0.000000  -0.000004   0.000000  -0.000005
              25         26         27         28         29         30
     1  C   -0.000007  -0.000000  -0.000000  -0.000000   0.000000   0.000000
     2  C   -0.000012  -0.000000  -0.000000   0.000001   0.000002   0.000000
     3  C   -0.002000  -0.000013  -0.000022  -0.000037   0.000098   0.000000
     4  N    0.000315   0.000003   0.000002  -0.000013  -0.000041  -0.000000
     5  C   -0.093944  -0.002874  -0.003782  -0.001457   0.008229   0.000036
     6  O    0.000739  -0.000000  -0.000004   0.000358   0.000016   0.000000
     7  N    0.001524   0.000132  -0.000092  -0.000835  -0.000250  -0.000001
     8  C   -0.839057  -0.110124  -0.064814   0.000635   0.133339   0.002842
     9  C   -0.076137  -0.014953   0.027305  -0.104800  -0.121838   0.001651
    10  C    1.376119   0.207388   0.071353  -0.039824  -0.140829  -0.003081
    11  C   -2.575784  -0.859360  -0.427972   0.111065   0.936154   0.020494
    12  C   -1.757811  -0.003532  -0.473139   0.118549   0.614421   0.059047
    13  C    1.937633   0.414667   0.443459   0.219860  -1.018007  -0.012788
    14  H   -0.000000  -0.000000  -0.000000  -0.000000  -0.000000   0.000000
    15  H   -0.000000  -0.000000   0.000000   0.000000   0.000000   0.000000
    16  H   -0.000000  -0.000000  -0.000000   0.000000  -0.000000  -0.000000
    17  H   -0.000000   0.000000  -0.000000   0.000000   0.000000  -0.000000
    18  H    0.000000  -0.000000   0.000000  -0.000000  -0.000000   0.000000
    19  H   -0.000000   0.000000  -0.000000  -0.000000   0.000000  -0.000000
    20  H    0.000001  -0.000000   0.000000  -0.000000  -0.000000   0.000000
    21  H    0.000001   0.000000  -0.000000   0.000000   0.000000   0.000000
    22  H   -0.001596   0.000015   0.000013  -0.004390   0.000285  -0.000000
    23  H   -0.001463   0.000093   0.000006   0.000011   0.000040  -0.000000
    24  H   -0.011311   0.003261  -0.000789  -0.000115   0.000083   0.000006
    25  S   16.705742   0.536498   0.581087   0.001566  -0.796723  -0.091860
    26  O    0.536498   8.860354  -0.163462   0.000350  -0.217446  -0.010001
    27  O    0.581087  -0.163462   8.843762  -0.002156  -0.243389  -0.002209
    28  H    0.001566   0.000350  -0.002156   0.423245   0.001816   0.000018
    29  C   -0.796723  -0.217446  -0.243389   0.001816   5.629000   0.220790
    30  F   -0.091860  -0.010001  -0.002209   0.000018   0.220790   9.150198
    31  F    0.099029   0.021236   0.013839  -0.000747   0.082329  -0.040864
    32  F    0.062538   0.016578   0.018393   0.001452   0.082330  -0.041720
              31         32
     1  C   -0.000000  -0.000000
     2  C   -0.000000   0.000000
     3  C   -0.000001  -0.000002
     4  N    0.000000   0.000000
     5  C   -0.000272  -0.000526
     6  O   -0.000001  -0.000000
     7  N    0.000003  -0.000009
     8  C   -0.009373  -0.004756
     9  C    0.001677   0.037478
    10  C    0.016164   0.007790
    11  C   -0.039730  -0.118785
    12  C   -0.093304  -0.240544
    13  C    0.027267   0.237243
    14  H   -0.000000  -0.000000
    15  H   -0.000000   0.000000
    16  H   -0.000000  -0.000000
    17  H    0.000000   0.000000
    18  H   -0.000000   0.000000
    19  H    0.000000   0.000000
    20  H   -0.000000  -0.000000
    21  H    0.000000  -0.000000
    22  H   -0.000003  -0.000004
    23  H    0.000000   0.000000
    24  H   -0.000014  -0.000005
    25  S    0.099029   0.062538
    26  O    0.021236   0.016578
    27  O    0.013839   0.018393
    28  H   -0.000747   0.001452
    29  C    0.082329   0.082330
    30  F   -0.040864  -0.041720
    31  F    9.180418  -0.030192
    32  F   -0.030192   9.208295
 Mulliken charges:
               1
     1  C   -0.729901
     2  C   -0.365491
     3  C   -0.189104
     4  N   -0.698064
     5  C    0.841441
     6  O   -0.819030
     7  N   -0.654660
     8  C    0.356105
     9  C    0.486065
    10  C   -1.452766
    11  C    0.128216
    12  C   -0.872979
    13  C    0.098674
    14  H    0.219487
    15  H    0.218273
    16  H    0.218283
    17  H    0.227552
    18  H    0.227646
    19  H    0.220165
    20  H    0.220038
    21  H    0.468701
    22  H    0.272257
    23  H    0.258347
    24  H    0.282555
    25  S    0.944914
    26  O   -0.678809
    27  O   -0.617386
    28  H    0.275451
    29  C    0.829591
    30  F   -0.252555
    31  F   -0.227459
    32  F   -0.235554
 Sum of Mulliken charges =  -1.00000
 Mulliken charges with hydrogens summed into heavy atoms:
               1
     1  C   -0.073859
     2  C    0.089707
     3  C    0.251099
     4  N   -0.229363
     5  C    0.841441
     6  O   -0.819030
     7  N   -0.654660
     8  C    0.356105
     9  C    0.758322
    10  C   -1.194420
    11  C    0.410771
    12  C   -0.872979
    13  C    0.374125
    25  S    0.944914
    26  O   -0.678809
    27  O   -0.617386
    29  C    0.829591
    30  F   -0.252555
    31  F   -0.227459
    32  F   -0.235554
 Electronic spatial extent (au):  <R**2>=          11889.0882
 Charge=             -1.0000 electrons
 Dipole moment (field-independent basis, Debye):
    X=             -2.3042    Y=             -3.4844    Z=              2.8327  Tot=              5.0472
 Quadrupole moment (field-independent basis, Debye-Ang):
   XX=           -170.2813   YY=           -133.0790   ZZ=           -137.0041
   XY=            -27.2922   XZ=              5.7434   YZ=              1.4045
 Traceless Quadrupole moment (field-independent basis, Debye-Ang):
   XX=            -23.4932   YY=             13.7091   ZZ=              9.7840
   XY=            -27.2922   XZ=              5.7434   YZ=              1.4045
 Octapole moment (field-independent basis, Debye-Ang**2):
  XXX=           -188.3264  YYY=            -23.0881  ZZZ=             16.2387  XYY=             33.1401
  XXY=            -61.0356  XXZ=             51.3286  XZZ=              4.7839  YZZ=            -19.7071
  YYZ=              6.3240  XYZ=              7.1697
 Hexadecapole moment (field-independent basis, Debye-Ang**3):
 XXXX=         -13674.7211 YYYY=           -989.9778 ZZZZ=           -407.6432 XXXY=           -709.0152
 XXXZ=             83.6914 YYYX=           -168.8775 YYYZ=              1.0404 ZZZX=             76.8312
 ZZZY=             -2.9226 XXYY=          -2640.8119 XXZZ=          -2495.1963 YYZZ=           -244.4965
 XXYZ=             -6.7250 YYXZ=             -5.0851 ZZXY=            -55.8639
 N-N= 1.675688475737D+03 E-N=-6.801247357090D+03  KE= 1.448078602743D+03
 D1PCM: PCM CHGder 1st derivatives, ID1Alg=3 FixD1E=F DoIter=F DoCFld=F I1PDM=0.
 Calling FoFJK, ICntrl=      2127 FMM=F ISym2X=0 I1Cent= 0 IOpClX= 0 NMat=1 NMatS=1 NMatT=0.
 ***** Axes restored to original set *****
 -------------------------------------------------------------------
 Center     Atomic                   Forces (Hartrees/Bohr)
 Number     Number              X              Y              Z
 -------------------------------------------------------------------
      1        6          -0.005199387    0.001335945   -0.000255096
      2        6           0.003887073   -0.004237748    0.000586301
      3        6          -0.003311914    0.002853950   -0.000522452
      4        7           0.003460816   -0.029177649    0.004145512
      5        6           0.043783923   -0.027292343    0.003203890
      6        8          -0.015514076    0.068294409   -0.009303730
      7        7           0.033822717   -0.027814235    0.003367268
      8        6          -0.077798061    0.001745680    0.000041884
      9        6           0.025752946    0.008199375    0.000077832
     10        6           0.019215789    0.005974032    0.001061610
     11        6           0.000783470   -0.013229239   -0.002837603
     12        6          -0.007266140    0.027125379   -0.021079924
     13        6          -0.009405847   -0.000329566   -0.000310459
     14        1           0.006132601    0.008833552   -0.001055870
     15        1          -0.001113912   -0.003453221    0.009611566
     16        1          -0.000919218   -0.005832929   -0.008342784
     17        1           0.001347708    0.004814824    0.008643605
     18        1           0.001503833    0.002415362   -0.009528158
     19        1          -0.000464414   -0.004260421   -0.009141939
     20        1          -0.000568632   -0.001591305    0.009928910
     21        1           0.000786559    0.016602308   -0.002172690
     22        1          -0.007411107   -0.001218865    0.000440149
     23        1          -0.001287309   -0.000965260    0.000811264
     24        1           0.001967415   -0.002082117   -0.000884450
     25       16           0.061719735   -0.120554266    0.114027447
     26        8          -0.033141983    0.039159615   -0.034208394
     27        8          -0.027051181    0.036792064   -0.041448463
     28        1          -0.001382500    0.003871096   -0.001065168
     29        6           0.011631780    0.051750812   -0.043193995
     30        9          -0.058659426   -0.006052783   -0.002475306
     31        9           0.012898203    0.010840839    0.048015019
     32        9           0.021800539   -0.042517293   -0.016135771
 -------------------------------------------------------------------
 Cartesian Forces:  Max     0.120554266 RMS     0.027498975

 GradGradGradGradGradGradGradGradGradGradGradGradGradGradGradGradGradGrad
 Berny optimization.
 FormGI is forming the generalized inverse of G from B-inverse, IUseBI=4.
 GSVD:  received Info=                   1 from GESDD.
 Internal  Forces:  Max     0.068629166 RMS     0.015339082
 Search for a local minimum.
 Step number   1 out of a maximum of  168
 All quantities printed in internal units (Hartrees-Bohrs-Radians)
 Mixed Optimization -- RFO/linear search
 Second derivative matrix not updated -- first step.
 ITU=  0
     Eigenvalues ---    0.00230   0.00329   0.00423   0.00425   0.00994
     Eigenvalues ---    0.01169   0.01437   0.01468   0.01789   0.01944
     Eigenvalues ---    0.01982   0.02047   0.02085   0.02101   0.02120
     Eigenvalues ---    0.02128   0.02131   0.02152   0.02178   0.03755
     Eigenvalues ---    0.03924   0.04436   0.04933   0.05553   0.05673
     Eigenvalues ---    0.05783   0.07395   0.08034   0.08804   0.08839
     Eigenvalues ---    0.09179   0.11976   0.12668   0.16000   0.16000
     Eigenvalues ---    0.16000   0.16000   0.16000   0.16000   0.16000
     Eigenvalues ---    0.16000   0.17812   0.21964   0.22000   0.22000
     Eigenvalues ---    0.22004   0.22005   0.22964   0.24000   0.24871
     Eigenvalues ---    0.25000   0.25000   0.25000   0.25000   0.25000
     Eigenvalues ---    0.25000   0.25000   0.25000   0.25000   0.26446
     Eigenvalues ---    0.29144   0.29806   0.32336   0.32338   0.32402
     Eigenvalues ---    0.32408   0.32500   0.32511   0.32559   0.35634
     Eigenvalues ---    0.35669   0.35736   0.36703   0.37889   0.39654
     Eigenvalues ---    0.40682   0.41304   0.42437   0.44216   0.45268
     Eigenvalues ---    0.45965   0.46171   0.48739   0.48813   0.48816
     Eigenvalues ---    0.51154   0.52303   0.65646   0.65877   0.95078
 RFO step:  Lambda=-9.56696779D-02 EMin= 2.30000000D-03
 Linear search not attempted -- first point.
 Maximum step size (   0.300) exceeded in Quadratic search.
    -- Step size scaled by   0.680
 Iteration  1 RMS(Cart)=  0.08432592 RMS(Int)=  0.00200832
 Iteration  2 RMS(Cart)=  0.00370153 RMS(Int)=  0.00087393
 Iteration  3 RMS(Cart)=  0.00001293 RMS(Int)=  0.00087392
 Iteration  4 RMS(Cart)=  0.00000006 RMS(Int)=  0.00087392
 Variable       Old X    -DE/DX   Delta X   Delta X   Delta X     New X
                                 (Linear)    (Quad)   (Total)
    R1        2.88352   0.00141   0.00000   0.00244   0.00244   2.88596
    R2        2.09832  -0.01046   0.00000  -0.01688  -0.01688   2.08144
    R3        2.09938  -0.01003   0.00000  -0.01621  -0.01621   2.08317
    R4        2.09920  -0.00997   0.00000  -0.01611  -0.01611   2.08309
    R5        2.89703  -0.00686   0.00000  -0.01205  -0.01205   2.88498
    R6        2.10115  -0.00952   0.00000  -0.01542  -0.01542   2.08573
    R7        2.10104  -0.00950   0.00000  -0.01539  -0.01539   2.08564
    R8        2.74526  -0.00064   0.00000  -0.00091  -0.00091   2.74435
    R9        2.10229  -0.00955   0.00000  -0.01550  -0.01550   2.08680
   R10        2.10233  -0.00949   0.00000  -0.01540  -0.01540   2.08693
   R11        2.57610   0.00068   0.00000   0.00075   0.00075   2.57685
   R12        1.95071  -0.01676   0.00000  -0.02191  -0.02191   1.92880
   R13        2.30677   0.06863   0.00000   0.04460   0.04460   2.35137
   R14        2.58718  -0.01266   0.00000  -0.01417  -0.01417   2.57301
   R15        2.72027  -0.06423   0.00000  -0.08874  -0.08874   2.63152
   R16        2.67711   0.00434   0.00000   0.00569   0.00569   2.68279
   R17        2.66292   0.00735   0.00000   0.00924   0.00923   2.67215
   R18        2.64340  -0.01297   0.00000  -0.01578  -0.01578   2.62762
   R19        2.02996   0.00398   0.00000   0.00584   0.00584   2.03580
   R20        2.63954  -0.01622   0.00000  -0.01993  -0.01993   2.61961
   R21        2.04658   0.00131   0.00000   0.00198   0.00198   2.04856
   R22        2.64030  -0.00042   0.00000  -0.00059  -0.00059   2.63972
   R23        2.04497   0.00278   0.00000   0.00418   0.00418   2.04915
   R24        2.63846   0.00413   0.00000   0.00509   0.00510   2.64356
   R25        3.39368  -0.02016   0.00000  -0.03808  -0.03808   3.35561
   R26        2.04602   0.00353   0.00000   0.00531   0.00531   2.05133
   R27        2.90434  -0.04335   0.00000  -0.03920  -0.03920   2.86514
   R28        2.90272  -0.04071   0.00000  -0.03670  -0.03670   2.86602
   R29        3.43238   0.01395   0.00000   0.02755   0.02755   3.45993
   R30        2.61160  -0.05888   0.00000  -0.06867  -0.06867   2.54293
   R31        2.61079  -0.05085   0.00000  -0.05924  -0.05924   2.55156
   R32        2.61083  -0.05037   0.00000  -0.05867  -0.05867   2.55216
    A1        1.91257   0.00329   0.00000   0.00912   0.00909   1.92166
    A2        1.92559   0.00199   0.00000   0.00512   0.00510   1.93068
    A3        1.92600   0.00201   0.00000   0.00515   0.00513   1.93113
    A4        1.89643  -0.00241   0.00000  -0.00604  -0.00607   1.89036
    A5        1.89704  -0.00246   0.00000  -0.00621  -0.00624   1.89080
    A6        1.90572  -0.00257   0.00000  -0.00753  -0.00754   1.89818
    A7        1.94147  -0.00097   0.00000  -0.00117  -0.00117   1.94029
    A8        1.90034   0.00165   0.00000   0.00584   0.00584   1.90618
    A9        1.90183   0.00154   0.00000   0.00542   0.00541   1.90724
   A10        1.91025  -0.00039   0.00000  -0.00200  -0.00201   1.90824
   A11        1.91099  -0.00035   0.00000  -0.00197  -0.00197   1.90902
   A12        1.89844  -0.00150   0.00000  -0.00619  -0.00621   1.89222
   A13        1.93742  -0.00333   0.00000  -0.00614  -0.00614   1.93128
   A14        1.90676   0.00096   0.00000   0.00177   0.00178   1.90854
   A15        1.90450   0.00113   0.00000   0.00243   0.00244   1.90694
   A16        1.90698   0.00180   0.00000   0.00509   0.00509   1.91208
   A17        1.90546   0.00182   0.00000   0.00534   0.00534   1.91080
   A18        1.90240  -0.00239   0.00000  -0.00861  -0.00861   1.89379
   A19        2.12694   0.00079   0.00000   0.00170   0.00170   2.12864
   A20        2.07760   0.00011   0.00000   0.00049   0.00049   2.07809
   A21        2.07864  -0.00090   0.00000  -0.00219  -0.00219   2.07644
   A22        2.08117  -0.00119   0.00000  -0.00235  -0.00235   2.07882
   A23        2.08475  -0.03632   0.00000  -0.07145  -0.07145   2.01330
   A24        2.11726   0.03752   0.00000   0.07381   0.07381   2.19107
   A25        2.23301  -0.03785   0.00000  -0.07446  -0.07446   2.15854
   A26        2.17375   0.00953   0.00000   0.01856   0.01857   2.19232
   A27        2.05335  -0.01032   0.00000  -0.02050  -0.02049   2.03286
   A28        2.05608   0.00079   0.00000   0.00194   0.00193   2.05801
   A29        2.10524  -0.00116   0.00000  -0.00170  -0.00171   2.10353
   A30        2.15600  -0.00590   0.00000  -0.01638  -0.01637   2.13963
   A31        2.02194   0.00706   0.00000   0.01808   0.01808   2.04002
   A32        2.11704   0.00353   0.00000   0.00765   0.00764   2.12468
   A33        2.09861  -0.00283   0.00000  -0.00665  -0.00665   2.09196
   A34        2.06753  -0.00070   0.00000  -0.00100  -0.00100   2.06654
   A35        2.09754  -0.00916   0.00000  -0.01970  -0.01970   2.07783
   A36        2.08198   0.00457   0.00000   0.00983   0.00982   2.09180
   A37        2.10367   0.00459   0.00000   0.00987   0.00987   2.11354
   A38        2.08559   0.01223   0.00000   0.02444   0.02444   2.11003
   A39        2.11066  -0.01866   0.00000  -0.03690  -0.03691   2.07375
   A40        2.08694   0.00643   0.00000   0.01246   0.01246   2.09940
   A41        2.10488  -0.00622   0.00000  -0.01262  -0.01261   2.09226
   A42        2.08409   0.00079   0.00000   0.00013   0.00013   2.08422
   A43        2.09421   0.00543   0.00000   0.01249   0.01249   2.10670
   A44        1.88006   0.01956   0.00000   0.03719   0.03155   1.91161
   A45        1.87225   0.02643   0.00000   0.05342   0.04769   1.91994
   A46        2.17966  -0.03944   0.00000  -0.10493  -0.10801   2.07165
   A47        1.72731   0.03324   0.00000   0.14085   0.13876   1.86607
   A48        1.86890  -0.00843   0.00000  -0.02795  -0.02878   1.84012
   A49        1.88310  -0.01447   0.00000  -0.03988  -0.04012   1.84298
   A50        1.91246  -0.00954   0.00000  -0.02020  -0.02016   1.89229
   A51        1.91061   0.00431   0.00000   0.00921   0.00916   1.91978
   A52        1.91313   0.00570   0.00000   0.01193   0.01190   1.92503
   A53        1.90652   0.00156   0.00000   0.00163   0.00166   1.90819
   A54        1.90682   0.00090   0.00000   0.00034   0.00039   1.90721
   A55        1.91425  -0.00298   0.00000  -0.00301  -0.00312   1.91113
    D1        3.14039   0.00002   0.00000   0.00014   0.00014   3.14054
    D2        1.03387   0.00003   0.00000  -0.00045  -0.00045   1.03342
    D3       -1.03437  -0.00001   0.00000   0.00051   0.00051  -1.03386
    D4        1.05304  -0.00030   0.00000  -0.00130  -0.00131   1.05173
    D5       -1.05348  -0.00030   0.00000  -0.00190  -0.00191  -1.05539
    D6       -3.12172  -0.00033   0.00000  -0.00093  -0.00094  -3.12267
    D7       -1.05444   0.00031   0.00000   0.00142   0.00143  -1.05301
    D8        3.12222   0.00031   0.00000   0.00082   0.00083   3.12306
    D9        1.05399   0.00028   0.00000   0.00179   0.00179   1.05578
   D10       -3.13683  -0.00010   0.00000  -0.00053  -0.00053  -3.13736
   D11        1.04225  -0.00087   0.00000  -0.00413  -0.00413   1.03812
   D12       -1.03609   0.00080   0.00000   0.00383   0.00383  -1.03226
   D13       -1.03614   0.00109   0.00000   0.00470   0.00469  -1.03145
   D14       -3.14025   0.00033   0.00000   0.00110   0.00109  -3.13916
   D15        1.06460   0.00200   0.00000   0.00905   0.00905   1.07364
   D16        1.04333  -0.00118   0.00000  -0.00524  -0.00524   1.03809
   D17       -1.06078  -0.00194   0.00000  -0.00884  -0.00884  -1.06962
   D18       -3.13912  -0.00027   0.00000  -0.00089  -0.00088  -3.14000
   D19        3.13512   0.00011   0.00000   0.00057   0.00057   3.13569
   D20       -0.00243   0.00004   0.00000   0.00011   0.00011  -0.00232
   D21       -1.04408   0.00038   0.00000   0.00220   0.00220  -1.04189
   D22        2.10154   0.00030   0.00000   0.00175   0.00174   2.10329
   D23        1.03496  -0.00038   0.00000  -0.00206  -0.00206   1.03290
   D24       -2.10260  -0.00045   0.00000  -0.00251  -0.00251  -2.10511
   D25        0.00255   0.00005   0.00000   0.00022   0.00021   0.00276
   D26       -3.13550  -0.00027   0.00000  -0.00153  -0.00152  -3.13701
   D27        3.14011   0.00012   0.00000   0.00068   0.00067   3.14078
   D28        0.00206  -0.00020   0.00000  -0.00107  -0.00106   0.00100
   D29        3.13478   0.00066   0.00000   0.00396   0.00399   3.13877
   D30       -0.00320   0.00042   0.00000   0.00234   0.00232  -0.00088
   D31        0.01363   0.00034   0.00000   0.00220   0.00221   0.01585
   D32       -3.12659   0.00047   0.00000   0.00292   0.00291  -3.12369
   D33       -3.13835  -0.00005   0.00000  -0.00030  -0.00032  -3.13867
   D34        0.00327   0.00011   0.00000   0.00066   0.00066   0.00393
   D35        0.00187  -0.00019   0.00000  -0.00104  -0.00104   0.00083
   D36       -3.13969  -0.00002   0.00000  -0.00009  -0.00006  -3.13975
   D37        3.13804  -0.00032   0.00000  -0.00186  -0.00188   3.13616
   D38       -0.00204  -0.00015   0.00000  -0.00094  -0.00096  -0.00300
   D39       -0.00228  -0.00021   0.00000  -0.00120  -0.00125  -0.00354
   D40        3.14082  -0.00004   0.00000  -0.00028  -0.00034   3.14049
   D41        0.00066  -0.00034   0.00000  -0.00194  -0.00187  -0.00121
   D42        3.14120   0.00031   0.00000   0.00182   0.00187  -3.14012
   D43       -3.14097  -0.00049   0.00000  -0.00282  -0.00280   3.13942
   D44       -0.00043   0.00016   0.00000   0.00094   0.00095   0.00052
   D45        0.00016   0.00111   0.00000   0.00640   0.00634   0.00650
   D46       -3.14147   0.00021   0.00000   0.00117   0.00115  -3.14032
   D47        3.14027   0.00095   0.00000   0.00549   0.00543  -3.13748
   D48       -0.00136   0.00005   0.00000   0.00026   0.00024  -0.00112
   D49        0.00242  -0.00160   0.00000  -0.00923  -0.00924  -0.00682
   D50       -3.14053  -0.00196   0.00000  -0.01151  -0.01148   3.13118
   D51       -3.13914  -0.00068   0.00000  -0.00394  -0.00398   3.14007
   D52        0.00110  -0.00105   0.00000  -0.00622  -0.00622  -0.00512
   D53       -0.00282   0.00122   0.00000   0.00704   0.00706   0.00424
   D54        3.13983   0.00056   0.00000   0.00326   0.00328  -3.14008
   D55        3.14010   0.00160   0.00000   0.00932   0.00938  -3.13370
   D56       -0.00043   0.00095   0.00000   0.00555   0.00559   0.00516
   D57        0.30822   0.02698   0.00000   0.09090   0.09299   0.40121
   D58       -1.53671  -0.02968   0.00000  -0.10574  -0.10828  -1.64499
   D59        2.52083  -0.00048   0.00000  -0.00706  -0.00668   2.51416
   D60       -2.83473   0.02662   0.00000   0.08863   0.09077  -2.74396
   D61        1.60353  -0.03004   0.00000  -0.10801  -0.11050   1.49303
   D62       -0.62211  -0.00084   0.00000  -0.00933  -0.00890  -0.63101
   D63       -3.07849   0.00097   0.00000   0.00293   0.00312  -3.07537
   D64       -0.98803  -0.00030   0.00000  -0.00178  -0.00162  -0.98965
   D65        1.11233   0.00224   0.00000   0.00761   0.00785   1.12018
   D66       -0.86122  -0.01451   0.00000  -0.06697  -0.06529  -0.92651
   D67        1.22924  -0.01578   0.00000  -0.07168  -0.07003   1.15921
   D68       -2.95359  -0.01325   0.00000  -0.06229  -0.06056  -3.01415
   D69        0.98355   0.01350   0.00000   0.06377   0.06187   1.04542
   D70        3.07401   0.01223   0.00000   0.05906   0.05713   3.13115
   D71       -1.10882   0.01477   0.00000   0.06845   0.06660  -1.04221
         Item               Value     Threshold  Converged?
[...]
 84,-0.00754925,-0.00026236,0.00065906,0.00666266,0.00175174,-0.0003754
 0,-0.00314993,-0.00202334,0.00013232,-0.00426408,-0.00074124,0.0002821
 3,-0.00243516,0.00674660,-0.00023444,-0.00204070,-0.01096344,-0.014289
 35,0.00549760,-0.00306950,-0.00205554,-0.00002810,0.00000672,-0.000003
 51,-0.00000264,0.00000119,-0.00000207,-0.00000202,0.00000579,0.0000012
 4,0.00000012,-0.00000976,0.00000082,0.00000272,-0.00000769,0.00001143,
 -0.00005920,0.00002458,-0.00000365,-0.00016149,0.00005495,-0.00007516,
 0.00004099,0.00012817,-0.00008707,-0.00032893,-0.00013735,0.00014101,-
 0.00069402,-0.00037370,0.00041117,0.00031829,0.00053998,-0.00010582,-0
 .03806239,-0.32084235,-0.22738508,-0.00422215,-0.01424065,-0.02419659,
 0.05039268,0.34227382,-0.00000981,-0.00001916,0.00000661,-0.00000937,0
 .00004072,-0.00002223,0.00010568,-0.00011089,-0.00006208,-0.00064888,-
 0.00005692,0.00024441,0.00153549,-0.00118168,-0.00021644,-0.00032514,0
 .00068936,-0.00003306,-0.00265825,-0.00001761,0.00020938,0.00225839,0.
 00091002,0.00022269,-0.00147625,-0.00035832,-0.00004964,-0.00058712,-0
 .00077684,-0.00088875,-0.00348037,0.00131433,0.00224991,0.00436537,-0.
 00905442,0.00174548,0.00272710,-0.00161483,-0.00059115,-0.00001070,0.0
 0000233,-0.00000127,-0.00000042,0.00000030,-0.00000017,-0.00000121,0.0
 0000258,0.00000047,0.00000021,-0.00000300,-0.00000016,0.00000048,-0.00
 000342,0.00000523,-0.00002161,0.00001109,-0.00000191,-0.00005817,0.000
 01890,-0.00002474,0.00001155,0.00004727,-0.00003837,-0.00019371,-0.000
 04467,-0.00007267,-0.00050740,-0.00001578,-0.00023546,0.00007264,0.000
 19907,0.00025318,-0.03528992,-0.22787246,-0.28787685,-0.00541968,-0.00
 226614,0.01007354,0.04703802,0.26667138,0.29565375,-0.00000359,-0.0000
 0755,0.00000231,-0.00000750,0.00001572,-0.00000876,0.00002803,-0.00003
 565,0.00003920,-0.00021397,0.00002385,0.00006343,0.00056582,-0.0003118
 0,0.00012533,-0.00012542,0.00022418,-0.00011086,-0.00035680,-0.0014522
 7,-0.00076970,-0.00501487,-0.00003302,0.00066952,-0.00242620,-0.027200
 81,-0.01151502,-0.00050691,-0.00017070,-0.00001484,-0.00407712,0.00220
 881,0.00121920,0.00949459,0.01972651,0.00826071,-0.07365102,-0.0601925
 3,-0.02448437,-0.00000383,0.00000102,-0.00000076,-0.00000032,0.0000002
 5,-0.00000047,-0.00000034,0.00000065,0.00000022,-0.00000011,-0.0000012
 9,0.00000013,0.00000039,-0.00000068,0.00000122,-0.00001329,0.00000856,
 -0.00000246,-0.00000783,0.00000376,-0.00000901,0.00001456,0.00003833,-
 0.00002766,0.00145507,0.00043486,-0.00006596,0.00015364,-0.00007011,-0
 .00006161,0.00052796,0.00103179,0.00042443,-0.00090176,0.00202937,0.00
 100362,0.00049886,-0.00036098,-0.00018968,-0.00039493,-0.00035262,-0.0
 0003259,0.07500018,-0.00000111,-0.00000350,-0.00000006,-0.00000346,0.0
 0000774,-0.00000415,0.00001744,-0.00001747,0.00000876,-0.00009777,0.00
 002901,0.00001690,0.00027371,-0.00012921,-0.00009197,0.00006628,0.0001
 5098,0.00003033,-0.00023827,-0.00051739,0.00042469,-0.00050807,0.00256
 060,-0.00295466,-0.00011872,-0.00149971,-0.00344560,-0.00024940,0.0003
 5756,0.00067096,0.00337031,0.00062468,-0.00207133,-0.00405507,-0.01221
 479,-0.00624108,-0.06037555,-0.29036953,-0.10544388,-0.00000186,0.0000
 0038,-0.00000026,0.00000015,0.00000022,-0.00000020,-0.00000003,0.00000
 060,0.00000019,0.,-0.00000067,-0.00000004,-0.00000002,-0.00000035,0.00
 000077,-0.00000528,0.00000151,-0.00000061,-0.00000449,0.00000461,-0.00
 000630,0.00001932,0.00001132,0.00000324,0.00013902,-0.00011423,0.00231
 184,-0.00006059,-0.00014085,0.00024434,-0.00035923,-0.00039303,-0.0004
 8526,-0.00123218,-0.00291175,-0.00020681,0.00037448,0.00041400,-0.0000
 4516,-0.00140424,0.00110062,0.00058668,0.06439672,0.30306519,-0.000002
 20,-0.00000408,0.00000255,-0.00000033,0.00000941,-0.00000544,0.0000277
 6,-0.00002581,-0.00001297,-0.00016568,-0.00007439,0.00009088,0.0003936
 6,-0.00044688,0.00012146,-0.00028554,0.00010950,-0.00012225,-0.0007909
 2,0.00050067,-0.00117147,0.00110403,-0.00211981,0.00823078,-0.00068311
 ,-0.00243919,0.00536412,-0.00003676,0.00076137,-0.00084088,0.00179523,
 -0.00206162,0.00378765,-0.00288261,-0.00684563,0.00002764,-0.02321356,
 -0.10636316,-0.08417047,-0.00000256,0.00000057,-0.00000030,-0.00000053
 ,0.00000016,-0.00000052,-0.00000041,0.00000046,0.00000025,-0.00000024,
 -0.00000108,0.00000020,0.00000046,-0.00000070,0.00000119,-0.00000537,0
 .00000557,-0.00000056,-0.00001919,0.00000073,-0.00000340,-0.00002736,0
 .00001675,-0.00003608,0.00002879,0.00219312,-0.00441191,-0.00004303,0.
 00019073,-0.00058697,-0.00011861,-0.00054622,0.00059602,0.00022095,0.0
 0010596,-0.00296690,-0.00034082,0.00012513,0.00029729,-0.00109793,0.00
 011102,-0.00004053,0.02559451,0.11675310,0.07577145,-0.00001024,-0.000
 02131,0.00000793,-0.00001163,0.00005003,-0.00002428,0.00013359,-0.0001
 2799,-0.00008703,-0.00078690,-0.00004349,0.00026535,0.00208732,-0.0017
 2455,-0.00034016,-0.00034074,0.00101209,-0.00002078,-0.00359829,-0.000
 18740,0.00047368,0.00306292,0.00112879,0.00028020,-0.00215003,-0.00152
 167,-0.00163841,-0.00235463,0.00094195,-0.00081565,0.00063990,0.001287
 88,0.00257467,-0.00746637,-0.00818907,0.00968979,0.00261857,-0.0018340
 4,0.00099965,-0.00001177,0.00000360,-0.00000169,-0.00000144,0.00000027
 ,-0.00000150,-0.00000121,0.00000213,0.00000082,-0.00000008,-0.00000439
 ,0.00000031,0.00000148,-0.00000331,0.00000406,-0.00002489,0.00001308,-
 0.00000065,-0.00008219,0.00002378,-0.00003263,0.00001763,0.00005312,-0
 .00003874,-0.00001248,0.00010230,-0.00022070,-0.00006987,0.00005133,-0
 .00025001,0.00008202,-0.00040449,0.00042419,-0.03782874,-0.01816735,0.
 03282104,-0.00543284,0.02292248,-0.01601111,0.00333608,-0.00254373,-0.
 01223700,-0.00015351,0.00006649,0.00076278,0.53660836,0.00001095,0.000
 02305,-0.00000707,0.00001235,-0.00005027,0.00002595,-0.00013992,0.0001
 3715,0.00006462,0.00080857,0.00005291,-0.00029664,-0.00199860,0.001605
 07,0.00037834,0.00034802,-0.00096226,0.00000878,0.00347588,0.00018495,
 -0.00029898,-0.00273148,-0.00133232,-0.00014806,0.00190740,0.00156641,
 0.00072222,0.00131264,-0.00018479,-0.00012178,0.00001722,-0.00219634,-
 0.00069189,0.00211811,0.00509086,0.00075002,-0.00311664,0.00074742,0.0
 0085504,0.00001252,-0.00000333,0.00000178,0.00000107,-0.00000022,0.000
 00120,0.00000133,-0.00000282,-0.00000107,0.00000004,0.00000372,-0.0000
 0090,-0.00000148,0.00000329,-0.00000433,0.00002697,-0.00001353,0.00000
 067,0.00007454,-0.00002422,0.00003546,-0.00001965,-0.00005681,0.000040
 94,0.00009146,0.00001494,-0.00003078,0.00024371,0.00009729,0.00004030,
 -0.00000346,-0.00042145,0.00000399,-0.01363574,-0.05993447,0.06673005,
 0.00211898,-0.00600122,0.00836710,0.00053047,-0.00730250,-0.03776770,-
 0.00002868,-0.00004612,-0.00025861,-0.00345447,0.53762312,-0.00003462,
 -0.00006818,0.00002509,-0.00003494,0.00015362,-0.00007886,0.00041726,-
 0.00039770,-0.00020748,-0.00244129,-0.00019031,0.00087738,0.00610982,-
 0.00480626,-0.00112771,-0.00108238,0.00284243,-0.00005754,-0.01057912,
 -0.00063089,0.00103325,0.00879330,0.00296819,0.00009268,-0.00466368,-0
 .00376860,-0.00196890,-0.00646116,0.00157815,-0.00056598,0.00335977,0.
 00634695,0.00319362,-0.01409057,-0.00675855,0.01041194,0.00626545,-0.0
 0459650,-0.00128896,-0.00003858,0.00000971,-0.00000472,-0.00000355,0.0
 0000225,-0.00000369,-0.00000247,0.00000582,0.00000111,-0.00000119,-0.0
 0001599,0.00000055,0.00000440,-0.00000911,0.00001337,-0.00007933,0.000
 03501,-0.00000585,-0.00023055,0.00007593,-0.00010415,0.00005400,0.0001
 7440,-0.00011892,-0.00037822,-0.00002655,-0.00019292,-0.00038998,-0.00
 019367,-0.00020732,0.00019869,-0.00022565,0.00058314,0.02311646,0.0632
 1674,-0.15309674,0.01097647,-0.02202555,0.01308337,0.00100667,0.005900
 70,0.00529526,0.00027306,-0.00022951,0.00027366,0.00284253,0.01445320,
 0.51502560,-0.00001841,-0.00003489,0.00001295,-0.00001614,0.00007621,-
 0.00003971,0.00020402,-0.00019435,-0.00011678,-0.00120238,-0.00009265,
 0.00044284,0.00300771,-0.00232480,-0.00053811,-0.00054662,0.00136322,-
 0.00001238,-0.00511771,-0.00028615,0.00053084,0.00427635,0.00151926,0.
 00003709,-0.00231143,-0.00188003,-0.00097645,-0.00293666,0.00075368,-0
 .00022332,0.00165436,0.00291184,0.00209518,-0.00613066,-0.00362326,0.0
 0421365,0.00336995,-0.00233693,-0.00003872,-0.00001975,0.00000446,-0.0
 0000230,-0.00000124,0.00000107,-0.00000116,-0.00000116,0.00000338,0.00
 000040,-0.00000060,-0.00000747,0.00000018,0.00000152,-0.00000530,0.000
 00802,-0.00003892,0.00001722,-0.00000257,-0.00011518,0.00003660,-0.000
 04773,0.00002565,0.00008687,-0.00006403,-0.00014110,0.00001999,-0.0001
 5910,-0.00017721,-0.00004930,-0.00016396,0.00011060,-0.00001600,0.0002
 0095,-0.02140656,-0.00309169,-0.01152745,0.00595505,-0.00509799,0.0027
 8007,0.00271819,0.00326230,0.00536524,0.00012838,-0.00005944,0.0001110
 2,-0.27522852,-0.08270333,0.02625805,0.39617002,-0.00001239,-0.0000248
 8,0.00000836,-0.00001176,0.00005426,-0.00002789,0.00014603,-0.00013821
 ,-0.00007832,-0.00085490,-0.00006061,0.00031177,0.00215050,-0.00168275
 ,-0.00037895,-0.00038478,0.00098846,-0.00001377,-0.00366595,-0.0002002
 1,0.00038055,0.00306691,0.00107442,0.00004373,-0.00168196,-0.00137317,
 -0.00075851,-0.00212116,0.00056563,-0.00022924,0.00104470,0.00189757,0
 .00164452,-0.00440299,-0.00285190,0.00293789,0.00255358,-0.00162439,-0
 .00016380,-0.00001381,0.00000330,-0.00000171,-0.00000097,0.00000064,-0
 .00000099,-0.00000099,0.00000247,0.00000047,-0.00000032,-0.00000512,0.
 00000035,0.00000104,-0.00000376,0.00000546,-0.00002803,0.00001252,-0.0
 0000129,-0.00008240,0.00002615,-0.00003472,0.00001870,0.00006130,-0.00
 004433,-0.00009560,0.00001707,-0.00010531,-0.00013218,-0.00002961,-0.0
 0012094,0.00005559,-0.00001845,0.00016664,-0.01679784,-0.00013563,-0.0
 0646410,0.00131476,-0.00072428,0.00074735,0.00197188,0.00272139,0.0050
 5088,0.00006187,-0.00002643,0.00015580,-0.08420201,-0.09893983,0.01252
 192,0.10823387,0.11097746,0.00001511,0.00002962,-0.00001096,0.00001406
 ,-0.00006549,0.00003391,-0.00017553,0.00016658,0.00009783,0.00103158,0
 .00007390,-0.00037272,-0.00260005,0.00203954,0.00045884,0.00046343,-0.
 00119605,0.00001484,0.00444048,0.00026044,-0.00047192,-0.00372351,-0.0
 0131715,-0.00006268,0.00205598,0.00164052,0.00097849,0.00264401,-0.000
 71055,0.00027088,-0.00139727,-0.00250983,-0.00182547,0.00555116,0.0032
 0502,-0.00366430,-0.00287803,0.00204698,-0.00001898,0.00001661,-0.0000
 0403,0.00000200,0.00000132,-0.00000086,0.00000140,0.00000105,-0.000002
 73,-0.00000050,0.00000076,0.00000668,-0.00000024,-0.00000164,0.0000043
 0,-0.00000625,0.00003297,-0.00001512,0.00000198,0.00009988,-0.00003160
 ,0.00004250,-0.00002307,-0.00007404,0.00005190,0.00012116,-0.00001600,
 0.00013689,0.00014719,0.00004030,0.00013791,-0.00007719,0.00010357,-0.
 00023902,0.01998708,0.00428052,0.00801123,-0.00253508,0.00254955,-0.00
 178339,-0.00066466,-0.00034025,-0.00183426,-0.00006244,0.00006044,-0.0
 0020127,0.02953200,0.01344156,-0.07354785,-0.00092640,0.00514489,0.064
 96696,-0.00000008,0.00000106,0.00000009,0.00000048,-0.00000355,0.00000
 088,-0.00000968,0.00000681,0.00000437,0.00005298,-0.00000016,-0.000018
 03,-0.00015232,0.00014637,0.00002713,0.00001508,-0.00008755,0.00000507
 ,0.00027890,-0.00001448,-0.00004578,-0.00028718,0.00020492,0.00003892,
 -0.00005281,0.00000802,0.00004996,0.00044868,-0.00015599,0.00009855,-0
 .00041733,0.00003426,-0.00001572,0.00063996,0.00049816,-0.00019028,0.0
 0011922,0.00000051,0.00004711,0.00000057,-0.00000034,0.00000013,0.0000
 0016,-0.00000002,0.00000014,0.00000013,-0.00000006,-0.00000010,0.00000
 023,0.00000049,-0.00000004,0.00000015,0.00000011,-0.00000006,0.0000020
 4,-0.00000062,-0.00000005,0.00000600,-0.00000163,0.00000270,-0.0000009
 2,-0.00000370,0.00000028,0.00000250,-0.00001673,0.00001084,-0.00000891
 ,-0.00001371,0.00001757,-0.00002066,0.00005213,-0.00010038,0.00424310,
 0.00183719,0.00082689,0.00083675,-0.00157364,0.00058479,0.00017367,-0.
 00021481,0.00109936,-0.00000473,0.00003635,-0.00007536,-0.06822547,-0.
 01583705,-0.02039765,-0.02640384,-0.04235396,-0.04040466,0.08295802,0.
 00000116,0.00000221,-0.00000073,0.00000106,-0.00000491,0.00000243,-0.0
 0001223,0.00001024,0.00000477,0.00007779,0.00000691,-0.00002448,-0.000
 20469,0.00016418,0.00002932,0.00002777,-0.00009413,0.00000433,0.000358
 91,-0.00000033,-0.00005198,-0.00037814,0.00016270,0.00010858,-0.000054
 93,-0.00000546,-0.00002140,0.00053726,-0.00003335,0.00011833,-0.000190
 28,-0.00012392,-0.00010109,0.00031628,0.00054464,0.00002013,0.00015625
 ,0.00007219,0.00014507,0.00000117,-0.00000033,0.00000007,0.00000018,-0
 .00000022,0.00000015,-0.00000005,0.00000021,0.00000016,-0.00000003,0.0
 0000091,0.00000025,-0.00000023,0.00000008,-0.00000032,0.00000231,-0.00
 000020,0.00000066,0.00000792,-0.00000280,0.00000338,-0.00000091,-0.000
 00624,0.00000226,0.00002479,0.00000535,-0.00000385,0.00001826,-0.00000
 756,0.00002074,-0.00001895,0.00016488,-0.00011458,-0.00059561,-0.00335
 407,0.00118554,-0.00142562,0.00395585,0.00064348,0.00011095,0.00039082
 ,-0.00149620,-0.00005736,0.00004809,0.00003655,-0.01587194,-0.14758935
 ,-0.11165259,-0.03600553,-0.02282691,-0.02873621,0.03168334,0.22994679
 ,0.00000988,0.00001737,-0.00000808,0.00000920,-0.00003994,0.00001993,-
 0.00010653,0.00010584,0.00005965,0.00062804,0.00004680,-0.00022817,-0.
 00155463,0.00121488,0.00025769,0.00027447,-0.00072227,0.00002810,0.002
 69898,0.00013093,-0.00023661,-0.00225908,-0.00061781,0.00003466,0.0010
 4487,0.00091606,0.00035879,0.00157818,-0.00002950,0.00018054,0.0003869
 3,-0.00156062,-0.00134134,0.00278065,0.00411500,-0.00030798,-0.0014579
 1,0.00087654,0.00051534,0.00000986,-0.00000262,0.00000119,0.00000130,-
 0.00000071,0.00000124,0.00000021,-0.00000112,-0.00000015,0.00000024,0.
 00000465,-0.00000021,-0.00000113,0.00000208,-0.00000283,0.00002028,-0.
 00000819,0.00000179,0.00005958,-0.00002025,0.00002798,-0.00001267,-0.0
 0004633,0.00002844,0.00010592,0.00002282,-0.00000464,0.00019823,0.0000
 4683,0.00009301,-0.00010899,0.00007854,-0.00015803,-0.00838452,-0.0360
 0157,-0.00858574,-0.00224496,0.00910633,-0.00065052,0.00115387,-0.0032
 0194,-0.02079980,-0.00020180,0.00008329,0.00000360,-0.02040446,-0.1110
 1972,-0.23461225,-0.02532839,-0.01945158,-0.00242222,0.03944321,0.1812
 5902,0.26415188,0.00000251,0.00000506,-0.00000248,0.00000361,-0.000012
 61,0.00000677,-0.00003611,0.00003786,0.00002218,0.00020732,0.00000939,
 -0.00006921,-0.00054525,0.00044109,0.00010750,0.00010146,-0.00026536,0
 .00000747,0.00094051,0.00009357,-0.00009497,-0.00067032,-0.00062536,-0
 .00027589,0.00086921,0.00050278,0.00036869,0.00021850,-0.00018256,0.00
 008230,0.00005583,-0.00027442,-0.00003661,0.00186665,-0.00014610,-0.00
 087409,-0.00063446,0.00027512,-0.00002172,0.00000293,-0.00000115,0.000
 00054,0.00000056,0.00000007,0.00000039,0.00000038,-0.00000054,-0.00000
 033,0.00000006,0.00000095,-0.00000024,-0.00000062,0.00000065,-0.000000
 72,0.00000656,-0.00000408,0.00000017,0.00002111,-0.00000630,0.00000939
 ,-0.00000562,-0.00001429,0.00000926,0.00002943,-0.00000135,0.00005544,
 0.00003379,0.00002843,0.00001636,-0.00003856,-0.00004831,-0.00010536,-
 0.00355910,0.00538140,0.00549517,-0.00097149,0.00369947,-0.00263269,0.
 00109282,-0.00219788,-0.00161189,-0.00000346,0.00001452,-0.00024709,-0
 .14479607,0.11055827,-0.02876664,-0.07580770,0.03622458,-0.01068631,0.
 00580529,0.02149109,0.01166118,0.21581023,-0.00000642,-0.00001335,0.00
 000375,-0.00000715,0.00002725,-0.00001393,0.00007322,-0.00006949,-0.00
 002933,-0.00043258,-0.00002719,0.00015683,0.00107938,-0.00087125,-0.00
 019630,-0.00021573,0.00051417,-0.00002220,-0.00185719,-0.00010844,0.00
 017049,0.00150987,0.00069395,0.00001089,-0.00103617,-0.00050894,-0.000
 21985,-0.00089286,0.00019305,0.00001573,0.00039232,0.00105555,0.000293
 53,-0.00282163,0.00055223,0.00163817,0.00051761,-0.00147105,-0.0001062
 2,-0.00000654,0.00000197,-0.00000099,-0.00000075,0.00000008,-0.0000008
 9,-0.00000089,0.00000129,0.00000057,-0.00000001,-0.00000202,0.00000064
 ,0.00000066,-0.00000187,0.00000203,-0.00001449,0.00000725,-0.00000015,
 -0.00004109,0.00001327,-0.00001937,0.00001018,0.00003064,-0.00002144,-
 0.00012048,-0.00002452,-0.00006591,-0.00009779,-0.00006029,-0.00000009
 ,0.00008013,0.00014742,0.00004975,0.02143678,-0.01429450,-0.01232116,0
 .00363898,-0.01168830,0.00933575,-0.00220254,0.00595140,0.00711511,0.0
 0006981,0.00000791,0.00011060,0.11064191,-0.22208836,0.04531057,0.0195
 1914,0.01226351,-0.00007449,0.02576828,-0.06142627,-0.02530282,-0.1749
 8396,0.29119488,0.00000582,0.00001173,-0.00000422,0.00000667,-0.000025
 78,0.00001303,-0.00007004,0.00006625,0.00002678,0.00041231,0.00003196,
 -0.00014909,-0.00101344,0.00079857,0.00020041,0.00019789,-0.00047115,0
 .00002141,0.00174877,0.00009616,-0.00016132,-0.00144844,-0.00049980,0.
 00000460,0.00077225,0.00045733,0.00015727,0.00100916,-0.00021156,0.000
 01302,-0.00057935,-0.00105006,-0.00038061,0.00287933,-0.00033596,-0.00
 161467,-0.00044404,0.00138480,0.00002576,0.00000638,-0.00000174,0.0000
 0079,0.00000077,-0.00000033,0.00000090,0.00000055,-0.00000094,-0.00000
 031,0.00000017,0.00000268,-0.00000027,-0.00000075,0.00000152,-0.000001
 81,0.00001359,-0.00000600,0.00000069,0.00003851,-0.00001296,0.00001831
 ,-0.00000971,-0.00002957,0.00001952,0.00010598,0.00001911,0.00005163,0
 .00007040,0.00004648,0.00001682,-0.00007236,-0.00003984,-0.00008764,-0
 .01727533,0.01416465,0.00961843,-0.00356266,0.01088268,-0.00752656,0.0
 0119501,-0.00158967,-0.00317037,-0.00011889,0.00003135,0.00000320,-0.0
 2855421,0.04472631,-0.08272016,-0.00188792,-0.00124514,0.01125448,0.01
 899010,-0.04138178,0.00359474,0.02758344,-0.02581928,0.07077524\\0.000
 00097,-0.00000807,-0.00000392,0.00000246,0.00000010,0.00000260,-0.0000
 0714,0.00000216,0.00000319,-0.00000075,0.00000152,0.00000303,0.0000022
 6,0.00001875,-0.00001308,-0.00000008,-0.00002056,-0.00000306,0.0000072
 8,0.00000186,0.00000474,-0.00000211,-0.00000703,0.00001622,-0.00000722
 ,-0.00000081,-0.00000287,0.00001131,0.00000491,0.00000571,-0.00000161,
 -0.00000129,0.00000530,-0.00000193,0.00000524,0.00002372,-0.00000386,0
 .00001618,-0.00001526,0.00000016,-0.00000352,0.00000278,0.00000099,-0.
 00001345,-0.00000382,-0.00000084,-0.00000020,-0.00000988,0.00000200,-0
 .00000663,0.00000926,-0.00000168,0.00000549,0.00000495,0.00000217,-0.0
 0000131,-0.00001016,-0.00000029,-0.00001334,-0.00000550,-0.00000160,-0
 .00000216,0.00001418,-0.00000067,0.00000948,-0.00001136,0.00000169,-0.
 00000337,0.00001836,0.00000064,0.00000041,0.00001615,-0.00000929,0.000
 01586,-0.00000785,-0.00000118,0.00000842,-0.00000216,0.00000205,0.0000
 1406,-0.00000254,-0.00000267,0.00001225,-0.00001467,0.00001265,-0.0000
 0429,-0.00000619,0.00000103,-0.00000329,-0.00000893,0.00000191,-0.0000
 2065,0.00000192,-0.00000668,-0.00000673,-0.00001087\\\@


 You don't have to suffer to be a poet.
 Adolescence is enough suffering for anyone.
                             -- John Ciardi
 Job cpu time:       0 days  4 hours  3 minutes 38.9 seconds.
 File lengths (MBytes):  RWF=    714 Int=      0 D2E=      0 Chk=     24 Scr=      1
 Normal termination of Gaussian 09 at Tue Oct 30 18:05:55 2018.
WARNING: pbs_rusage is deprecated and values produced may not be accurate


=============================================================================
                                     Resource usage:
                                       CPU time:              33:06:31
   JobId:    1827624.r-man2            Elapsed time:          08:18:07
   Project:             q95            Requested time:        40:00:00
   Service Units:     33.21 
                                       Max physical memory:      817MB
                                       Max virtual memory:      1913MB
                                       Requested memory:           0MB

                                       Number of cpus:               4

                                       Max jobfs disk use:       0.7GB
                                       Requested jobfs:         20.0GB
=============================================================================

