 Entering Gaussian System, Link 0=/apps/gaussian/g09e01/g09/g09
 AtFile(1): /home/507/hio507/Basis/6-31pGd.gbs
 Initial command:
 /apps/gaussian/g09e01/g09/l1.exe "/jobfs/local/6207894.r-man2/Gau-10428.inp" -scrdir="/jobfs/local/6207894.r-man2/"
 Entering Link 1 = /apps/gaussian/g09e01/g09/l1.exe PID=     10429.
  
 Copyright (c) 1988,1990,1992,1993,1995,1998,2003,2009,2015,
            Gaussian, Inc.  All Rights Reserved.
  
 This is part of the Gaussian(R) 09 program.  It is based on
 the Gaussian(R) 03 system (copyright 2003, Gaussian, Inc.),
 the Gaussian(R) 98 system (copyright 1998, Gaussian, Inc.),
 the Gaussian(R) 94 system (copyright 1995, Gaussian, Inc.),
 the Gaussian 92(TM) system (copyright 1992, Gaussian, Inc.),
 the Gaussian 90(TM) system (copyright 1990, Gaussian, Inc.),
 the Gaussian 88(TM) system (copyright 1988, Gaussian, Inc.),
 the Gaussian 86(TM) system (copyright 1986, Carnegie Mellon
 University), and the Gaussian 82(TM) system (copyright 1983,
 Carnegie Mellon University). Gaussian is a federally registered
 trademark of Gaussian, Inc.
  
 This software contains proprietary and confidential information,
 including trade secrets, belonging to Gaussian, Inc.
  
 This software is provided under written license and may be
 used, copied, transmitted, or stored only in accord with that
 written license.
  
 The following legend is applicable only to US Government
 contracts under FAR:
  
                    RESTRICTED RIGHTS LEGEND
  
 Use, reproduction and disclosure by the US Government is
 subject to restrictions as set forth in subparagraphs (a)
 and (c) of the Commercial Computer Software - Restricted
 Rights clause in FAR 52.227-19.
  
 Gaussian, Inc.
 340 Quinnipiac St., Bldg. 40, Wallingford CT 06492
  
  
 ---------------------------------------------------------------
 Warning -- This program may not be used in any manner that
 competes with the business of Gaussian, Inc. or will provide
 assistance to any competitor of Gaussian, Inc.  The licensee
 of this program is prohibited from giving any competitor of
 Gaussian, Inc. access to this program.  By using this program,
 the user acknowledges that Gaussian, Inc. is engaged in the
 business of creating and licensing software in the field of
 computational chemistry and represents and warrants to the
 licensee that it is not a competitor of Gaussian, Inc. and that
 it will not use this program in any manner prohibited above.
 ---------------------------------------------------------------
  

 Cite this work as:
 Gaussian 09, Revision E.01,
 M. J. Frisch, G. W. Trucks, H. B. Schlegel, G. E. Scuseria, 
 M. A. Robb, J. R. Cheeseman, G. Scalmani, V. Barone, B. Mennucci, 
 G. A. Petersson, H. Nakatsuji, M. Caricato, X. Li, H. P. Hratchian, 
 A. F. Izmaylov, J. Bloino, G. Zheng, J. L. Sonnenberg, M. Hada, 
 M. Ehara, K. Toyota, R. Fukuda, J. Hasegawa, M. Ishida, T. Nakajima, 
 Y. Honda, O. Kitao, H. Nakai, T. Vreven, J. A. Montgomery, Jr., 
 J. E. Peralta, F. Ogliaro, M. Bearpark, J. J. Heyd, E. Brothers, 
 K. N. Kudin, V. N. Staroverov, T. Keith, R. Kobayashi, J. Normand, 
 K. Raghavachari, A. Rendell, J. C. Burant, S. S. Iyengar, J. Tomasi, 
 M. Cossi, N. Rega, J. M. Millam, M. Klene, J. E. Knox, J. B. Cross, 
 V. Bakken, C. Adamo, J. Jaramillo, R. Gomperts, R. E. Stratmann, 
 O. Yazyev, A. J. Austin, R. Cammi, C. Pomelli, J. W. Ochterski, 
 R. L. Martin, K. Morokuma, V. G. Zakrzewski, G. A. Voth, 
 P. Salvador, J. J. Dannenberg, S. Dapprich, A. D. Daniels, 
 O. Farkas, J. B. Foresman, J. V. Ortiz, J. Cioslowski, 
 and D. J. Fox, Gaussian, Inc., Wallingford CT, 2013.
 
 ******************************************
 Gaussian 09:  ES64L-G09RevE.01 30-Nov-2015
                27-Feb-2019 
 ******************************************
 %chk=3TFM4Chloro.M062X_6-31pGd_opt_water.chk
 %mem=196608000
 %nproc=4
 Will use up to    4 processors via shared memory.
 ----------------------------------------------------------------------
 # M062X/Gen 6D SCF=Tight INT(grid=ultrafine) OPT=CalcFC IOP(2/17=4) SC
 RF=(SMD,Solvent=h2o) maxdisk=2147483648
 ----------------------------------------------------------------------
 1/10=4,14=-1,18=20,19=15,26=4,38=1/1,3;
 2/9=110,12=2,17=4,18=5,40=1/2;
 3/5=7,8=2,11=2,16=1,25=1,30=1,70=32201,71=2,72=1,74=-55,75=-5,140=1/1,2,3;
 4//1;
 5/5=2,32=2,38=5,53=1/2;
 8/6=4,10=90,11=11/1;
 11/6=1,8=1,9=11,15=111,16=1/1,2,10;
 10/6=1,13=1/2;
 6/7=2,8=2,9=2,10=2,28=1/1;
 7/10=1,18=20,25=1/1,2,3,16;
 1/10=4,14=-1,18=20,19=15,26=4/3(2);
 2/9=110,17=4/2;
 99//99;
 2/9=110,17=4/2;
 3/5=7,6=1,8=2,11=2,16=1,25=1,30=1,70=32205,71=1,72=1,74=-55,75=-5,82=7/1,2,3;
 4/5=5,16=3,69=1/1;
 5/5=2,32=2,38=5,53=1/2;
 7//1,2,3,16;
 1/14=-1,18=20,19=15,26=4/3(-5);
 2/9=110,17=4/2;
 6/7=2,8=2,9=2,10=2,19=2,28=1/1;
 99/9=1/99;
 -----------------------------------
 3TFM4Chloro.M062X_6-31pGd_opt_water
 -----------------------------------
 Symbolic Z-matrix:
 Charge =  0 Multiplicity = 1
 C                    -1.97352   2.15591  -0.08665 
 C                    -0.61057   1.47905   0.02572 
 C                     0.52777   2.49435  -0.12759 
 N                     1.82295   1.84516  -0.01995 
 C                     2.98899   2.5429   -0.1301 
 O                     2.94608   3.74708  -0.3245 
 N                     4.18252   1.88041  -0.01988 
 C                     5.51424   2.42235  -0.10987 
 C                     5.81465   3.78466  -0.35717 
 C                     6.58885   1.53178   0.05767 
 C                     7.90925   1.96903  -0.01485 
 C                     8.19863   3.31099  -0.2583 
 C                     7.14968   4.23819  -0.43342 
 H                    -2.77633   1.39719   0.02635 
 H                    -2.08202   2.64337  -1.07898 
 H                    -2.09175   2.92044   0.71058 
 H                    -0.5258    0.70533  -0.76829 
 H                    -0.53467   0.98327   1.01798 
 H                     0.43864   3.26762   0.66725 
 H                     0.44619   2.98614  -1.12213 
 H                     1.86066   0.82654   0.14315 
 H                     4.122     0.86408   0.14975 
 H                     5.04149   4.51331  -0.49616 
 H                     6.40354   0.48178   0.24796 
 H                     8.71312   1.25604   0.1194 
 Cl                    9.89316   3.78785  -0.33698 
 C                     7.45655   5.6986   -0.70029 
 F                     6.30689   6.45616  -0.84519 
 F                     8.19576   5.81192  -1.86392 
 F                     8.18515   6.21972   0.35364 
 

 GradGradGradGradGradGradGradGradGradGradGradGradGradGradGradGradGradGrad
 Berny optimization.
 Initialization pass.
                           ----------------------------
                           !    Initial Parameters    !
                           ! (Angstroms and Degrees)  !
 --------------------------                            --------------------------
 ! Name  Definition              Value          Derivative Info.                !
 --------------------------------------------------------------------------------
 ! R1    R(1,2)                  1.5259         calculate D2E/DX2 analytically  !
 ! R2    R(1,14)                 1.1104         calculate D2E/DX2 analytically  !
 ! R3    R(1,15)                 1.1109         calculate D2E/DX2 analytically  !
 ! R4    R(1,16)                 1.1109         calculate D2E/DX2 analytically  !
 ! R5    R(2,3)                  1.533          calculate D2E/DX2 analytically  !
 ! R6    R(2,17)                 1.1119         calculate D2E/DX2 analytically  !
 ! R7    R(2,18)                 1.1118         calculate D2E/DX2 analytically  !
 ! R8    R(3,4)                  1.4528         calculate D2E/DX2 analytically  !
 ! R9    R(3,19)                 1.1125         calculate D2E/DX2 analytically  !
 ! R10   R(3,20)                 1.1125         calculate D2E/DX2 analytically  !
 ! R11   R(4,5)                  1.3633         calculate D2E/DX2 analytically  !
 ! R12   R(4,21)                 1.0323         calculate D2E/DX2 analytically  !
 ! R13   R(5,6)                  1.2205         calculate D2E/DX2 analytically  !
 ! R14   R(5,7)                  1.3695         calculate D2E/DX2 analytically  !
 ! R15   R(7,8)                  1.4406         calculate D2E/DX2 analytically  !
 ! R16   R(7,22)                 1.0322         calculate D2E/DX2 analytically  !
 ! R17   R(8,9)                  1.4168         calculate D2E/DX2 analytically  !
 ! R18   R(8,10)                 1.4057         calculate D2E/DX2 analytically  !
 ! R19   R(9,13)                 1.412          calculate D2E/DX2 analytically  !
 ! R20   R(9,23)                 1.0715         calculate D2E/DX2 analytically  !
 ! R21   R(10,11)                1.3928         calculate D2E/DX2 analytically  !
 ! R22   R(10,24)                1.0831         calculate D2E/DX2 analytically  !
 ! R23   R(11,12)                1.3942         calculate D2E/DX2 analytically  !
 ! R24   R(11,25)                1.0829         calculate D2E/DX2 analytically  !
 ! R25   R(12,13)                1.4109         calculate D2E/DX2 analytically  !
 ! R26   R(12,26)                1.7621         calculate D2E/DX2 analytically  !
 ! R27   R(13,27)                1.516          calculate D2E/DX2 analytically  !
 ! R28   R(27,28)                1.3844         calculate D2E/DX2 analytically  !
 ! R29   R(27,29)                1.3832         calculate D2E/DX2 analytically  !
 ! R30   R(27,30)                1.3832         calculate D2E/DX2 analytically  !
 ! A1    A(2,1,14)             109.5849         calculate D2E/DX2 analytically  !
 ! A2    A(2,1,15)             110.3442         calculate D2E/DX2 analytically  !
 ! A3    A(2,1,16)             110.334          calculate D2E/DX2 analytically  !
 ! A4    A(14,1,15)            108.6702         calculate D2E/DX2 analytically  !
 ! A5    A(14,1,16)            108.6797         calculate D2E/DX2 analytically  !
 ! A6    A(15,1,16)            109.1882         calculate D2E/DX2 analytically  !
 ! A7    A(1,2,3)              111.2296         calculate D2E/DX2 analytically  !
 ! A8    A(1,2,17)             108.9159         calculate D2E/DX2 analytically  !
 ! A9    A(1,2,18)             108.9352         calculate D2E/DX2 analytically  !
 ! A10   A(3,2,17)             109.441          calculate D2E/DX2 analytically  !
 ! A11   A(3,2,18)             109.5048         calculate D2E/DX2 analytically  !
 ! A12   A(17,2,18)            108.773          calculate D2E/DX2 analytically  !
 ! A13   A(2,3,4)              111.0166         calculate D2E/DX2 analytically  !
 ! A14   A(2,3,19)             109.2322         calculate D2E/DX2 analytically  !
 ! A15   A(2,3,20)             109.1307         calculate D2E/DX2 analytically  !
 ! A16   A(4,3,19)             109.2138         calculate D2E/DX2 analytically  !
 ! A17   A(4,3,20)             109.2177         calculate D2E/DX2 analytically  !
 ! A18   A(19,3,20)            109.0003         calculate D2E/DX2 analytically  !
 ! A19   A(3,4,5)              121.8591         calculate D2E/DX2 analytically  !
 ! A20   A(3,4,21)             119.0272         calculate D2E/DX2 analytically  !
 ! A21   A(5,4,21)             119.1137         calculate D2E/DX2 analytically  !
 ! A22   A(4,5,6)              119.1923         calculate D2E/DX2 analytically  !
 ! A23   A(4,5,7)              119.427          calculate D2E/DX2 analytically  !
 ! A24   A(6,5,7)              121.3807         calculate D2E/DX2 analytically  !
 ! A25   A(5,7,8)              128.2165         calculate D2E/DX2 analytically  !
 ! A26   A(5,7,22)             116.0049         calculate D2E/DX2 analytically  !
 ! A27   A(8,7,22)             115.7785         calculate D2E/DX2 analytically  !
 ! A28   A(7,8,9)              124.6559         calculate D2E/DX2 analytically  !
 ! A29   A(7,8,10)             117.4464         calculate D2E/DX2 analytically  !
 ! A30   A(9,8,10)             117.8976         calculate D2E/DX2 analytically  !
 ! A31   A(8,9,13)             121.2478         calculate D2E/DX2 analytically  !
 ! A32   A(8,9,23)             121.5702         calculate D2E/DX2 analytically  !
 ! A33   A(13,9,23)            117.1819         calculate D2E/DX2 analytically  !
 ! A34   A(8,10,11)            121.3076         calculate D2E/DX2 analytically  !
 ! A35   A(8,10,24)            120.2876         calculate D2E/DX2 analytically  !
 ! A36   A(11,10,24)           118.4048         calculate D2E/DX2 analytically  !
 ! A37   A(10,11,12)           120.5323         calculate D2E/DX2 analytically  !
 ! A38   A(10,11,25)           119.3805         calculate D2E/DX2 analytically  !
 ! A39   A(12,11,25)           120.0872         calculate D2E/DX2 analytically  !
 ! A40   A(11,12,13)           119.993          calculate D2E/DX2 analytically  !
 ! A41   A(11,12,26)           117.896          calculate D2E/DX2 analytically  !
 ! A42   A(13,12,26)           122.1111         calculate D2E/DX2 analytically  !
 ! A43   A(9,13,12)            119.0217         calculate D2E/DX2 analytically  !
 ! A44   A(9,13,27)            120.6846         calculate D2E/DX2 analytically  !
 ! A45   A(12,13,27)           120.2937         calculate D2E/DX2 analytically  !
 ! A46   A(13,27,28)           112.1773         calculate D2E/DX2 analytically  !
 ! A47   A(13,27,29)           109.5841         calculate D2E/DX2 analytically  !
 ! A48   A(13,27,30)           109.5992         calculate D2E/DX2 analytically  !
 ! A49   A(28,27,29)           108.1142         calculate D2E/DX2 analytically  !
 ! A50   A(28,27,30)           108.1209         calculate D2E/DX2 analytically  !
 ! A51   A(29,27,30)           109.1854         calculate D2E/DX2 analytically  !
 ! D1    D(14,1,2,3)           179.9028         calculate D2E/DX2 analytically  !
 ! D2    D(14,1,2,17)           59.2007         calculate D2E/DX2 analytically  !
 ! D3    D(14,1,2,18)          -59.303          calculate D2E/DX2 analytically  !
 ! D4    D(15,1,2,3)            60.2789         calculate D2E/DX2 analytically  !
 ! D5    D(15,1,2,17)          -60.4232         calculate D2E/DX2 analytically  !
 ! D6    D(15,1,2,18)         -178.9269         calculate D2E/DX2 analytically  !
 ! D7    D(16,1,2,3)           -60.4678         calculate D2E/DX2 analytically  !
 ! D8    D(16,1,2,17)          178.8301         calculate D2E/DX2 analytically  !
 ! D9    D(16,1,2,18)           60.3263         calculate D2E/DX2 analytically  !
 ! D10   D(1,2,3,4)           -179.9967         calculate D2E/DX2 analytically  !
 ! D11   D(1,2,3,19)            59.5113         calculate D2E/DX2 analytically  !
 ! D12   D(1,2,3,20)           -59.5659         calculate D2E/DX2 analytically  !
 ! D13   D(17,2,3,4)           -59.604          calculate D2E/DX2 analytically  !
 ! D14   D(17,2,3,19)          179.904          calculate D2E/DX2 analytically  !
 ! D15   D(17,2,3,20)           60.8268         calculate D2E/DX2 analytically  !
 ! D16   D(18,2,3,4)            59.5446         calculate D2E/DX2 analytically  !
 ! D17   D(18,2,3,19)          -60.9474         calculate D2E/DX2 analytically  !
 ! D18   D(18,2,3,20)          179.9754         calculate D2E/DX2 analytically  !
 ! D19   D(2,3,4,5)            179.6766         calculate D2E/DX2 analytically  !
 ! D20   D(2,3,4,21)            -0.231          calculate D2E/DX2 analytically  !
 ! D21   D(19,3,4,5)           -59.8205         calculate D2E/DX2 analytically  !
 ! D22   D(19,3,4,21)          120.2719         calculate D2E/DX2 analytically  !
 ! D23   D(20,3,4,5)            59.2973         calculate D2E/DX2 analytically  !
 ! D24   D(20,3,4,21)         -120.6103         calculate D2E/DX2 analytically  !
 ! D25   D(3,4,5,6)              0.008          calculate D2E/DX2 analytically  !
 ! D26   D(3,4,5,7)            179.9691         calculate D2E/DX2 analytically  !
 ! D27   D(21,4,5,6)           179.9155         calculate D2E/DX2 analytically  !
 ! D28   D(21,4,5,7)            -0.1234         calculate D2E/DX2 analytically  !
 ! D29   D(4,5,7,8)            179.7262         calculate D2E/DX2 analytically  !
 ! D30   D(4,5,7,22)            -0.3154         calculate D2E/DX2 analytically  !
 ! D31   D(6,5,7,8)             -0.3136         calculate D2E/DX2 analytically  !
 ! D32   D(6,5,7,22)           179.6447         calculate D2E/DX2 analytically  !
 ! D33   D(5,7,8,9)             -1.0116         calculate D2E/DX2 analytically  !
 ! D34   D(5,7,8,10)           179.1204         calculate D2E/DX2 analytically  !
 ! D35   D(22,7,8,9)           179.03           calculate D2E/DX2 analytically  !
 ! D36   D(22,7,8,10)           -0.8381         calculate D2E/DX2 analytically  !
 ! D37   D(7,8,9,13)          -179.8848         calculate D2E/DX2 analytically  !
 ! D38   D(7,8,9,23)            -0.0158         calculate D2E/DX2 analytically  !
 ! D39   D(10,8,9,13)           -0.0173         calculate D2E/DX2 analytically  !
 ! D40   D(10,8,9,23)          179.8517         calculate D2E/DX2 analytically  !
 ! D41   D(7,8,10,11)          179.9339         calculate D2E/DX2 analytically  !
 ! D42   D(7,8,10,24)           -0.0908         calculate D2E/DX2 analytically  !
 ! D43   D(9,8,10,11)            0.0567         calculate D2E/DX2 analytically  !
 ! D44   D(9,8,10,24)         -179.9681         calculate D2E/DX2 analytically  !
 ! D45   D(8,9,13,12)           -0.029          calculate D2E/DX2 analytically  !
 ! D46   D(8,9,13,27)          179.9271         calculate D2E/DX2 analytically  !
 ! D47   D(23,9,13,12)        -179.9036         calculate D2E/DX2 analytically  !
 ! D48   D(23,9,13,27)           0.0525         calculate D2E/DX2 analytically  !
 ! D49   D(8,10,11,12)          -0.0493         calculate D2E/DX2 analytically  !
 ! D50   D(8,10,11,25)         179.9752         calculate D2E/DX2 analytically  !
 ! D51   D(24,10,11,12)        179.975          calculate D2E/DX2 analytically  !
 ! D52   D(24,10,11,25)         -0.0005         calculate D2E/DX2 analytically  !
 ! D53   D(10,11,12,13)          0.0008         calculate D2E/DX2 analytically  !
 ! D54   D(10,11,12,26)       -179.9637         calculate D2E/DX2 analytically  !
 ! D55   D(25,11,12,13)        179.9761         calculate D2E/DX2 analytically  !
 ! D56   D(25,11,12,26)          0.0116         calculate D2E/DX2 analytically  !
 ! D57   D(11,12,13,9)           0.0375         calculate D2E/DX2 analytically  !
 ! D58   D(11,12,13,27)       -179.9187         calculate D2E/DX2 analytically  !
 ! D59   D(26,12,13,9)        -179.9996         calculate D2E/DX2 analytically  !
 ! D60   D(26,12,13,27)          0.0442         calculate D2E/DX2 analytically  !
 ! D61   D(9,13,27,28)           0.0233         calculate D2E/DX2 analytically  !
 ! D62   D(9,13,27,29)        -120.0687         calculate D2E/DX2 analytically  !
 ! D63   D(9,13,27,30)         120.1339         calculate D2E/DX2 analytically  !
 ! D64   D(12,13,27,28)        179.9788         calculate D2E/DX2 analytically  !
 ! D65   D(12,13,27,29)         59.8868         calculate D2E/DX2 analytically  !
 ! D66   D(12,13,27,30)        -59.9106         calculate D2E/DX2 analytically  !
 --------------------------------------------------------------------------------
 Trust Radius=3.00D-01 FncErr=1.00D-07 GrdErr=1.00D-06
 Number of steps in this run=    157 maximum allowed number of steps=    180.
 GradGradGradGradGradGradGradGradGradGradGradGradGradGradGradGradGradGrad

                          Input orientation:                          
 ---------------------------------------------------------------------
 Center     Atomic      Atomic             Coordinates (Angstroms)
 Number     Number       Type             X           Y           Z
 ---------------------------------------------------------------------
      1          6           0       -1.973520    2.155910   -0.086650
      2          6           0       -0.610570    1.479050    0.025720
      3          6           0        0.527770    2.494350   -0.127590
      4          7           0        1.822950    1.845160   -0.019950
      5          6           0        2.988990    2.542900   -0.130100
      6          8           0        2.946080    3.747080   -0.324500
      7          7           0        4.182520    1.880410   -0.019880
      8          6           0        5.514240    2.422350   -0.109870
      9          6           0        5.814650    3.784660   -0.357170
     10          6           0        6.588850    1.531780    0.057670
     11          6           0        7.909250    1.969030   -0.014850
     12          6           0        8.198630    3.310990   -0.258300
     13          6           0        7.149680    4.238190   -0.433420
     14          1           0       -2.776330    1.397190    0.026350
     15          1           0       -2.082020    2.643370   -1.078980
     16          1           0       -2.091750    2.920440    0.710580
     17          1           0       -0.525800    0.705330   -0.768290
     18          1           0       -0.534670    0.983270    1.017980
     19          1           0        0.438640    3.267620    0.667250
     20          1           0        0.446190    2.986140   -1.122130
     21          1           0        1.860660    0.826540    0.143150
     22          1           0        4.122000    0.864080    0.149750
     23          1           0        5.041490    4.513310   -0.496160
     24          1           0        6.403540    0.481780    0.247960
     25          1           0        8.713120    1.256040    0.119400
     26         17           0        9.893160    3.787850   -0.336980
     27          6           0        7.456550    5.698600   -0.700290
     28          9           0        6.306890    6.456160   -0.845190
     29          9           0        8.195760    5.811920   -1.863920
     30          9           0        8.185150    6.219720    0.353640
 ---------------------------------------------------------------------
                    Distance matrix (angstroms):
                    1          2          3          4          5
     1  C    0.000000
     2  C    1.525909   0.000000
     3  C    2.524415   1.533022   0.000000
     4  N    3.809751   2.461329   1.452765   0.000000
     5  C    4.977766   3.756713   2.461700   1.363313   0.000000
     6  O    5.175989   4.232774   2.730628   2.229680   1.220525
     7  N    6.162563   4.810081   3.707522   2.359833   1.369509
     8  C    7.492535   6.198508   4.987021   3.737226   2.528207
     9  C    7.961256   6.837097   5.446899   4.450735   3.094816
    10  C    8.586300   7.199684   6.139833   4.776823   3.743877
    11  C    9.884798   8.533994   7.401008   6.087563   4.954954
    12  C   10.238960   9.002148   7.715315   6.546355   5.267518
    13  C    9.364236   8.248948   6.854502   5.854195   4.503038
    14  H    1.110373   2.167307   3.484901   4.621277   5.880140
    15  H    1.110904   2.177422   2.781790   4.124012   5.160001
    16  H    1.110883   2.177276   2.783158   4.124897   5.163642
    17  H    2.159794   1.111882   2.172809   2.715852   4.017175
    18  H    2.159996   1.111818   2.173585   2.716344   4.020785
    19  H    2.760938   2.170573   1.112502   2.100464   2.768623
    20  H    2.759800   2.169244   1.112485   2.100501   2.765216
    21  H    4.064599   2.558620   2.152089   1.032284   2.072121
    22  H    6.235389   4.773970   3.956411   2.505384   2.044618
    23  H    7.411842   6.436216   4.958398   4.207707   2.868671
    24  H    8.549258   7.088136   6.222230   4.786688   4.006282
    25  H   10.726439   9.326827   8.282172   6.916713   5.872301
    26  Cl  11.980984  10.760597   9.456612   8.306795   7.018566
    27  C   10.092246   9.132914   7.655272   6.859250   5.499332
    28  F    9.361235   8.566292   7.043374   6.484448   5.180098
    29  F   10.951683   9.994796   8.533416   7.729691   6.387729
    30  F   10.950205   9.997308   8.529093   7.730067   6.383815
                    6          7          8          9         10
     6  O    0.000000
     7  N    2.259654   0.000000
     8  C    2.897658   1.440582   0.000000
     9  C    2.869002   2.530569   1.416789   0.000000
    10  C    4.280582   2.432690   1.405692   2.418046   0.000000
    11  C    5.281136   3.727787   2.439385   2.793035   1.392804
    12  C    5.271038   4.269958   2.831548   2.432591   2.420086
    13  C    4.233593   3.812372   2.465081   1.412023   2.807197
    14  H    6.196052   6.975760   8.354823   8.924799   9.366199
    15  H    5.202807   6.399083   7.661018   8.011301   8.815418
    16  H    5.209074   6.401695   7.666310   8.024844   8.815185
    17  H    4.637148   4.910113   6.313775   7.060637   7.209957
    18  H    4.642900   4.912626   6.319202   7.074792   7.208855
    19  H    2.738742   4.051313   5.203856   5.497113   6.419487
    20  H    2.732159   4.049414   5.198813   5.481164   6.421788
    21  H    3.150617   2.555045   3.994906   4.963349   4.781260
    22  H    3.149506   1.032165   2.105692   3.413476   2.557274
    23  H    2.237704   2.810131   2.178262   1.071459   3.404493
    24  H    4.789982   2.638339   2.164419   3.409104   1.083074
    25  H    6.297704   4.575541   3.412576   3.875844   2.142981
    26  Cl   6.947211   6.029120   4.592506   4.078561   4.020456
    27  C    4.928893   5.075510   3.854216   2.544943   4.323170
    28  F    4.348020   5.111905   4.176196   2.759959   5.014397
    29  F    5.847437   5.912981   4.664378   3.471277   4.959261
    30  F    5.832810   5.915249   4.665685   3.471893   4.961104
                   11         12         13         14         15
    11  C    0.000000
    12  C    1.394226   0.000000
    13  C    2.429246   1.410909   0.000000
    14  H   10.700949  11.144209  10.334812   0.000000
    15  H   10.070381  10.334941   9.390659   1.804657   0.000000
    16  H   10.072310  10.343267   9.404745   1.804747   1.810908
    17  H    8.562399   9.119497   8.456136   2.484956   2.504865
    18  H    8.563775   9.127853   8.470555   2.485900   3.089897
    19  H    7.613252   7.815112   6.869610   3.774294   3.129334
    20  H    7.613005   7.807180   6.854103   3.772056   2.551705
    21  H    6.157572   6.819349   6.320247   4.673431   4.509900
    22  H    3.948578   4.772084   4.570728   6.919999   6.570047
    23  H    3.863815   3.386692   2.126991   8.432172   7.387879
    24  H    2.132638   3.388669   3.889938   9.228060   8.856521
    25  H    1.082860   2.151785   3.412209  11.490694  10.949696
    26  Cl   2.710678   1.762106   2.781868  12.898187  12.052607
    27  C    3.818960   2.539039   1.515977  11.123937  10.023081
    28  F    4.836461   3.716882   2.408161  10.433487   9.217691
    29  F    4.274219   2.971982   2.370072  11.977050  10.783719
    30  F    4.275543   2.972434   2.370258  11.979898  10.966196
                   16         17         18         19         20
    16  H    0.000000
    17  H    3.089655   0.000000
    18  H    2.504320   1.807786   0.000000
    19  H    2.554464   3.091318   2.507708   0.000000
    20  H    3.131179   2.504408   3.090897   1.811400   0.000000
    21  H    4.508652   2.557461   2.554897   2.873272   2.874984
    22  H    6.569158   4.740258   4.738418   4.428538   4.430846
    23  H    7.407872   6.750517   6.771068   4.908309   4.882711
    24  H    8.850482   7.007032   6.998799   6.596722   6.605981
    25  H   10.948285   9.297791   9.295347   8.533089   8.536789
    26  Cl  12.061834  10.873945  10.883071   9.521926   9.513382
    27  C   10.043842   9.415693   9.436439   7.551880   7.528648
    28  F    9.244398   8.931048   8.957169   6.847673   6.816564
    29  F   10.991887  10.165789  10.384682   8.547116   8.281976
    30  F   10.799413  10.370529  10.192989   8.295882   8.516187
                   21         22         23         24         25
    21  H    0.000000
    22  H    2.261661   0.000000
    23  H    4.911076   3.818317   0.000000
    24  H    4.557149   2.315432   4.319969   0.000000
    25  H    6.865948   4.607921   4.946675   2.439296   0.000000
    26  Cl   8.574435   6.487806   4.908190   4.842489   2.830343
    27  C    7.467419   5.934170   2.697980   5.405850   4.689051
    28  F    7.241436   6.085640   2.344723   6.074334   5.810475
    29  F    8.307577   6.717999   3.675129   6.006870   4.995724
    30  F    8.314437   6.725596   3.676492   6.009098   4.997173
                   26         27         28         29         30
    26  Cl   0.000000
    27  C    3.117696   0.000000
    28  F    4.498832   1.384417   0.000000
    29  F    3.051159   1.383224   2.240689   0.000000
    30  F    3.050942   1.383182   2.240749   2.254770   0.000000
 Stoichiometry    C11H12ClF3N2O
 Framework group  C1[X(C11H12ClF3N2O)]
 Deg. of freedom    84
 Full point group                 C1      NOp   1
 Largest Abelian subgroup         C1      NOp   1
 Largest concise Abelian subgroup C1      NOp   1
                         Standard orientation:                         
 ---------------------------------------------------------------------
 Center     Atomic      Atomic             Coordinates (Angstroms)
 Number     Number       Type             X           Y           Z
 ---------------------------------------------------------------------
      1          6           0        7.289264    0.807057    0.001815
      2          6           0        6.182092   -0.242872    0.016532
      3          6           0        4.796046    0.411595   -0.010018
      4          7           0        3.745668   -0.591915    0.004191
      5          6           0        2.425471   -0.251986   -0.008071
      6          8           0        2.114800    0.928100   -0.031799
      7          7           0        1.476331   -1.239154    0.005637
      8          6           0        0.042763   -1.097226    0.001887
      9          6           0       -0.644157    0.141899    0.003129
     10          6           0       -0.724894   -2.274795   -0.000502
     11          6           0       -2.117014   -2.231221   -0.002799
     12          6           0       -2.787400   -1.008745   -0.001750
     13          6           0       -2.055094    0.197231    0.001646
     14          1           0        8.279139    0.304452    0.023355
     15          1           0        7.206596    1.467999    0.890877
     16          1           0        7.223645    1.424366   -0.919425
     17          1           0        6.282518   -0.859743    0.936133
     18          1           0        6.298337   -0.902238   -0.871085
     19          1           0        4.699962    1.029156   -0.930370
     20          1           0        4.686263    1.069232    0.880535
     21          1           0        4.007048   -1.590330    0.025590
     22          1           0        1.831432   -2.208207    0.019877
     23          1           0       -0.117727    1.075109    0.007315
     24          1           0       -0.239733   -3.243129   -0.000995
     25          1           0       -2.677530   -3.157720   -0.005014
     26         17           0       -4.549314   -1.034689   -0.003817
     27          6           0       -2.777036    1.530265    0.004661
     28          9           0       -1.898607    2.600294    0.008258
     29          9           0       -3.573306    1.623746    1.131835
     30          9           0       -3.571893    1.629986   -1.122925
 ---------------------------------------------------------------------
 Rotational constants (GHZ):      0.8635534      0.1371228      0.1213605
 General basis read from cards:  (6D, 7F)
 There are   370 symmetry adapted cartesian basis functions of A   symmetry.
 There are   370 symmetry adapted basis functions of A   symmetry.
   370 basis functions,   648 primitive gaussians,   370 cartesian basis functions
    72 alpha electrons       72 beta electrons
       nuclear repulsion energy      1427.9536518124 Hartrees.
 NAtoms=   30 NActive=   30 NUniq=   30 SFac= 1.00D+00 NAtFMM=   60 NAOKFM=F Big=F
 Integral buffers will be    131072 words long.
 Raffenetti 2 integral format.
 Two-electron integral symmetry is turned on.
 Force inversion solution in PCM.
 ------------------------------------------------------------------------------
 Polarizable Continuum Model (PCM)
 =================================
 Model                : PCM (using non-symmetric T matrix).
 Atomic radii         : SMD-Coulomb.
 Polarization charges : Total charges.
 Charge compensation  : None.
 Solution method      : Matrix inversion.
 Cavity type          : VdW (van der Waals Surface) (Alpha=1.000).
 Cavity algorithm     : GePol (No added spheres)
                        Default sphere list used, NSphG=   30.
                        Lebedev-Laikov grids with approx.  5.0 points / Ang**2.
                        Smoothing algorithm: York/Karplus (Gamma=1.0000).
                        Polarization charges: spherical gaussians, with
                                              point-specific exponents (IZeta= 3).
                        Self-potential: point-specific (ISelfS= 7).
                        Self-field    : sphere-specific E.n sum rule (ISelfD= 2).
 1st derivatives      : Analytical E(r).r(x)/FMM algorithm (CHGder, D1EAlg=3).
                        Cavity 1st derivative terms included.
 2nd derivatives      : Analytical E(r).r(xy)/FMM algorithm (CHGder, D2EAlg=3).
                        Cavity 2nd derivative terms included.
 Solvent              : Water, Eps=  78.355300 Eps(inf)=   1.777849
 ------------------------------------------------------------------------------
 ------------------------------------------------------------------------------
 Atomic radii for non-electrostatic terms: SMD-CDS.
 ------------------------------------------------------------------------------
 Nuclear repulsion after PCM non-electrostatic terms =     1427.9647718910 Hartrees.
 One-electron integrals computed using PRISM.
 NBasis=   370 RedAO= T EigKep=  1.50D-06  NBF=   370
 NBsUse=   369 1.00D-06 EigRej=  3.58D-07 NBFU=   369
 ExpMin= 4.38D-02 ExpMax= 2.52D+04 ExpMxC= 3.78D+03 IAcc=3 IRadAn=         5 AccDes= 0.00D+00
 Harris functional with IExCor= 1009 and IRadAn=       5 diagonalized for initial guess.
 HarFok:  IExCor= 1009 AccDes= 0.00D+00 IRadAn=         5 IDoV= 1 UseB2=F ITyADJ=14
 ICtDFT=  3500011 ScaDFX=  1.000000  1.000000  1.000000  1.000000
 FoFCou: FMM=F IPFlag=           0 FMFlag=      100000 FMFlg1=           0
         NFxFlg=           0 DoJE=T BraDBF=F KetDBF=T FulRan=T
         wScrn=  0.000000 ICntrl=     500 IOpCl=  0 I1Cent=   200000004 NGrid=           0
         NMat0=    1 NMatS0=      1 NMatT0=    0 NMatD0=    1 NMtDS0=    0 NMtDT0=    0
 Petite list used in FoFCou.
 Requested convergence on RMS density matrix=1.00D-08 within 128 cycles.
 Requested convergence on MAX density matrix=1.00D-06.
 Requested convergence on             energy=1.00D-06.
 No special actions if energy rises.
 Inv3:  Mode=1 IEnd=    17890092.
 Iteration    1 A*A^-1 deviation from unit magnitude is 4.22D-15 for    604.
 Iteration    1 A*A^-1 deviation from orthogonality  is 2.94D-15 for   1101    375.
 Iteration    1 A^-1*A deviation from unit magnitude is 4.44D-15 for   2424.
 Iteration    1 A^-1*A deviation from orthogonality  is 4.51D-10 for   1274   1252.
 Iteration    2 A*A^-1 deviation from unit magnitude is 5.33D-15 for    609.
 Iteration    2 A*A^-1 deviation from orthogonality  is 2.82D-15 for   1598    609.
 Iteration    2 A^-1*A deviation from unit magnitude is 1.11D-15 for    435.
 Iteration    2 A^-1*A deviation from orthogonality  is 4.21D-16 for   1111    341.
 Error on total polarization charges =  0.04616
 SCF Done:  E(RM062X) =  -1370.53940881     A.U. after   15 cycles
            NFock= 15  Conv=0.41D-08     -V/T= 2.0069
 SMD-CDS (non-electrostatic) energy       (kcal/mol) =       6.98
 (included in total energy above)
 DoSCS=F DFT=T ScalE2(SS,OS)=  1.000000  1.000000
 Range of M.O.s used for correlation:     1   369
 NBasis=   370 NAE=    72 NBE=    72 NFC=     0 NFV=     0
 NROrb=    369 NOA=    72 NOB=    72 NVA=   297 NVB=   297

 **** Warning!!: The largest alpha MO coefficient is  0.14315675D+03

 Symmetrizing basis deriv contribution to polar:
 IMax=3 JMax=2 DiffMx= 0.00D+00
 G2DrvN: will do    31 centers at a time, making    1 passes.
 Calling FoFCou, ICntrl=  3107 FMM=F I1Cent=   0 AccDes= 0.00D+00.
 NEqPCM:  Using equilibrium solvation (IEInf=0, Eps=  78.3553, EpsInf=   1.7778)
 G2PCM: DoFxE=T DoFxN=T DoGrad=T DoDP/DQ/DG/TGxP=FFFF NFrqRd=   0 IEInf=0 SqF1=F DoCFld=F IF1Alg=4.
 End of G2Drv F.D. properties file   721 does not exist.
 End of G2Drv F.D. properties file   722 does not exist.
 End of G2Drv F.D. properties file   788 does not exist.
          IDoAtm=111111111111111111111111111111
 NEqPCM:  Using equilibrium solvation (IEInf=0, Eps=  78.3553, EpsInf=   1.7778)
          Differentiating once with respect to nuclear coordinates.
          There are    93 degrees of freedom in the 1st order CPHF.  IDoFFX=6 NUNeed=     0.
     87 vectors produced by pass  0 Test12= 2.30D-14 1.08D-09 XBig12= 3.22D-01 1.33D-01.
 AX will form    87 AO Fock derivatives at one time.
     87 vectors produced by pass  1 Test12= 2.30D-14 1.08D-09 XBig12= 2.38D-02 4.43D-02.
     87 vectors produced by pass  2 Test12= 2.30D-14 1.08D-09 XBig12= 5.94D-04 3.46D-03.
     87 vectors produced by pass  3 Test12= 2.30D-14 1.08D-09 XBig12= 3.71D-06 3.18D-04.
     87 vectors produced by pass  4 Test12= 2.30D-14 1.08D-09 XBig12= 2.65D-08 1.92D-05.
     87 vectors produced by pass  5 Test12= 2.30D-14 1.08D-09 XBig12= 1.36D-10 1.22D-06.
     68 vectors produced by pass  6 Test12= 2.30D-14 1.08D-09 XBig12= 5.48D-13 7.06D-08.
     24 vectors produced by pass  7 Test12= 2.30D-14 1.08D-09 XBig12= 2.61D-15 4.83D-09.
     17 vectors produced by pass  8 Test12= 2.30D-14 1.08D-09 XBig12= 4.23D-15 1.04D-08.
     17 vectors produced by pass  9 Test12= 2.30D-14 1.08D-09 XBig12= 1.43D-14 1.07D-08.
     13 vectors produced by pass 10 Test12= 2.30D-14 1.08D-09 XBig12= 5.69D-15 8.17D-09.
     12 vectors produced by pass 11 Test12= 2.30D-14 1.08D-09 XBig12= 9.26D-15 1.03D-08.
     12 vectors produced by pass 12 Test12= 2.30D-14 1.08D-09 XBig12= 1.37D-14 1.19D-08.
      7 vectors produced by pass 13 Test12= 2.30D-14 1.08D-09 XBig12= 2.65D-15 5.15D-09.
      7 vectors produced by pass 14 Test12= 2.30D-14 1.08D-09 XBig12= 1.07D-14 8.26D-09.
      7 vectors produced by pass 15 Test12= 2.30D-14 1.08D-09 XBig12= 4.53D-15 6.09D-09.
      7 vectors produced by pass 16 Test12= 2.30D-14 1.08D-09 XBig12= 5.88D-15 5.71D-09.
      7 vectors produced by pass 17 Test12= 2.30D-14 1.08D-09 XBig12= 8.88D-15 6.82D-09.
      6 vectors produced by pass 18 Test12= 2.30D-14 1.08D-09 XBig12= 6.41D-15 5.34D-09.
      6 vectors produced by pass 19 Test12= 2.30D-14 1.08D-09 XBig12= 1.10D-14 8.45D-09.
      2 vectors produced by pass 20 Test12= 2.30D-14 1.08D-09 XBig12= 1.82D-15 2.94D-09.
 InvSVY:  IOpt=1 It=  1 EMax= 6.66D-16
 Solved reduced A of dimension   734 with    93 vectors.
 End of Minotr F.D. properties file   721 does not exist.
 End of Minotr F.D. properties file   722 does not exist.
 End of Minotr F.D. properties file   788 does not exist.

 **********************************************************************

            Population analysis using the SCF density.

 **********************************************************************

 Orbital symmetries:
       Occupied  (A) (A) (A) (A) (A) (A) (A) (A) (A) (A) (A) (A)
                 (A) (A) (A) (A) (A) (A) (A) (A) (A) (A) (A) (A)
                 (A) (A) (A) (A) (A) (A) (A) (A) (A) (A) (A) (A)
                 (A) (A) (A) (A) (A) (A) (A) (A) (A) (A) (A) (A)
                 (A) (A) (A) (A) (A) (A) (A) (A) (A) (A) (A) (A)
                 (A) (A) (A) (A) (A) (A) (A) (A) (A) (A) (A) (A)
       Virtual   (A) (A) (A) (A) (A) (A) (A) (A) (A) (A) (A) (A)
                 (A) (A) (A) (A) (A) (A) (A) (A) (A) (A) (A) (A)
                 (A) (A) (A) (A) (A) (A) (A) (A) (A) (A) (A) (A)
                 (A) (A) (A) (A) (A) (A) (A) (A) (A) (A) (A) (A)
                 (A) (A) (A) (A) (A) (A) (A) (A) (A) (A) (A) (A)
                 (A) (A) (A) (A) (A) (A) (A) (A) (A) (A) (A) (A)
                 (A) (A) (A) (A) (A) (A) (A) (A) (A) (A) (A) (A)
                 (A) (A) (A) (A) (A) (A) (A) (A) (A) (A) (A) (A)
                 (A) (A) (A) (A) (A) (A) (A) (A) (A) (A) (A) (A)
                 (A) (A) (A) (A) (A) (A) (A) (A) (A) (A) (A) (A)
                 (A) (A) (A) (A) (A) (A) (A) (A) (A) (A) (A) (A)
                 (A) (A) (A) (A) (A) (A) (A) (A) (A) (A) (A) (A)
                 (A) (A) (A) (A) (A) (A) (A) (A) (A) (A) (A) (A)
                 (A) (A) (A) (A) (A) (A) (A) (A) (A) (A) (A) (A)
                 (A) (A) (A) (A) (A) (A) (A) (A) (A) (A) (A) (A)
                 (A) (A) (A) (A) (A) (A) (A) (A) (A) (A) (A) (A)
                 (A) (A) (A) (A) (A) (A) (A) (A) (A) (A) (A) (A)
                 (A) (A) (A) (A) (A) (A) (A) (A) (A) (A) (A) (A)
                 (A) (A) (A) (A) (A) (A) (A) (A) (A) (A) (A) (A)
                 (A) (A) (A) (A) (A) (A) (A) (A) (A) (A) (A) (A)
                 (A) (A) (A) (A) (A) (A) (A) (A) (A) (A) (A) (A)
                 (A) (A) (A) (A) (A) (A) (A) (A) (A) (A) (A) (A)
                 (A) (A) (A) (A) (A) (A) (A) (A) (A) (A) (A) (A)
                 (A) (A) (A) (A) (A) (A) (A) (A) (A) (A) (A) (A)
                 (A) (A) (A) (A) (A) (A) (A) (A) (A)
 The electronic state is 1-A.
 Alpha  occ. eigenvalues -- -102.68452 -25.31603 -25.31308 -25.31306 -19.61929
 Alpha  occ. eigenvalues --  -14.81033 -14.78638 -10.83561 -10.69192 -10.63716
 Alpha  occ. eigenvalues --  -10.63117 -10.60720 -10.58231 -10.58095 -10.57950
 Alpha  occ. eigenvalues --  -10.57670 -10.54576 -10.53458  -9.83069  -7.55477
 Alpha  occ. eigenvalues --   -7.54808  -7.54790  -1.45403  -1.37614  -1.37575
 Alpha  occ. eigenvalues --   -1.19217  -1.05641  -1.02761  -1.00747  -0.94563
 Alpha  occ. eigenvalues --   -0.90163  -0.87658  -0.84512  -0.81499  -0.77293
 Alpha  occ. eigenvalues --   -0.73688  -0.71820  -0.69075  -0.69021  -0.67572
 Alpha  occ. eigenvalues --   -0.67515  -0.65319  -0.63199  -0.59181  -0.57810
 Alpha  occ. eigenvalues --   -0.57635  -0.57050  -0.55762  -0.55502  -0.54344
 Alpha  occ. eigenvalues --   -0.53555  -0.53425  -0.52468  -0.52313  -0.51501
 Alpha  occ. eigenvalues --   -0.50741  -0.48970  -0.48183  -0.46149  -0.45785
 Alpha  occ. eigenvalues --   -0.45609  -0.44091  -0.42520  -0.41691  -0.39472
 Alpha  occ. eigenvalues --   -0.39144  -0.38842  -0.37248  -0.35802  -0.33408
 Alpha  occ. eigenvalues --   -0.32364  -0.28036
 Alpha virt. eigenvalues --   -0.01475   0.00030   0.01367   0.01944   0.02969
 Alpha virt. eigenvalues --    0.03635   0.04123   0.04276   0.04460   0.05530
 Alpha virt. eigenvalues --    0.05767   0.05920   0.06407   0.07474   0.07614
 Alpha virt. eigenvalues --    0.07739   0.08039   0.08777   0.09131   0.09435
 Alpha virt. eigenvalues --    0.09800   0.09931   0.10520   0.11052   0.11549
 Alpha virt. eigenvalues --    0.12394   0.12502   0.13191   0.13447   0.13693
 Alpha virt. eigenvalues --    0.14315   0.14388   0.14578   0.15534   0.16394
 Alpha virt. eigenvalues --    0.16681   0.17797   0.18138   0.18675   0.19079
 Alpha virt. eigenvalues --    0.19149   0.19829   0.20232   0.20605   0.20812
 Alpha virt. eigenvalues --    0.22001   0.22299   0.22440   0.22576   0.22703
 Alpha virt. eigenvalues --    0.23316   0.23633   0.24013   0.24253   0.24542
 Alpha virt. eigenvalues --    0.24860   0.25546   0.25600   0.26097   0.27109
 Alpha virt. eigenvalues --    0.27687   0.27881   0.28672   0.29146   0.29389
 Alpha virt. eigenvalues --    0.30173   0.30279   0.30532   0.31061   0.31422
 Alpha virt. eigenvalues --    0.32177   0.32587   0.32923   0.32926   0.33375
 Alpha virt. eigenvalues --    0.33541   0.34449   0.34607   0.35212   0.35929
 Alpha virt. eigenvalues --    0.36532   0.37455   0.37927   0.38032   0.38809
 Alpha virt. eigenvalues --    0.39024   0.39840   0.40282   0.40939   0.42382
 Alpha virt. eigenvalues --    0.43372   0.43706   0.43854   0.44797   0.46342
 Alpha virt. eigenvalues --    0.47526   0.47800   0.49138   0.51080   0.52410
 Alpha virt. eigenvalues --    0.54087   0.56061   0.57604   0.60437   0.61168
 Alpha virt. eigenvalues --    0.66391   0.67933   0.68559   0.69723   0.69850
 Alpha virt. eigenvalues --    0.70496   0.72250   0.73616   0.73960   0.74678
 Alpha virt. eigenvalues --    0.75324   0.75452   0.76573   0.76842   0.77939
 Alpha virt. eigenvalues --    0.78993   0.79675   0.81202   0.81337   0.82131
 Alpha virt. eigenvalues --    0.82702   0.83353   0.85706   0.86451   0.87284
 Alpha virt. eigenvalues --    0.89502   0.89707   0.89771   0.92657   0.95051
 Alpha virt. eigenvalues --    0.97186   0.97808   0.98310   0.99083   1.00528
 Alpha virt. eigenvalues --    1.01223   1.02579   1.02832   1.03253   1.04422
 Alpha virt. eigenvalues --    1.05232   1.05847   1.07026   1.08142   1.11449
 Alpha virt. eigenvalues --    1.11471   1.12389   1.13420   1.14836   1.15524
 Alpha virt. eigenvalues --    1.16853   1.17283   1.18526   1.19136   1.21471
 Alpha virt. eigenvalues --    1.21983   1.23105   1.25653   1.26695   1.27502
 Alpha virt. eigenvalues --    1.30792   1.31128   1.32489   1.34036   1.37469
 Alpha virt. eigenvalues --    1.38040   1.39263   1.40048   1.42798   1.44346
 Alpha virt. eigenvalues --    1.45354   1.45482   1.47731   1.48840   1.49110
 Alpha virt. eigenvalues --    1.49933   1.51499   1.54295   1.56168   1.57281
 Alpha virt. eigenvalues --    1.57674   1.60753   1.61367   1.64317   1.66796
 Alpha virt. eigenvalues --    1.66955   1.68187   1.69761   1.73052   1.73581
 Alpha virt. eigenvalues --    1.74264   1.75458   1.75703   1.78646   1.79420
 Alpha virt. eigenvalues --    1.81258   1.83955   1.84674   1.85492   1.85777
 Alpha virt. eigenvalues --    1.86420   1.87178   1.87697   1.87869   1.88950
 Alpha virt. eigenvalues --    1.90975   1.91190   1.92154   1.92476   1.94178
 Alpha virt. eigenvalues --    1.96886   1.97432   1.98622   2.01936   2.02279
 Alpha virt. eigenvalues --    2.02368   2.03493   2.04684   2.04920   2.06193
 Alpha virt. eigenvalues --    2.06981   2.07352   2.08280   2.08382   2.12211
 Alpha virt. eigenvalues --    2.13927   2.14507   2.16742   2.19969   2.20439
 Alpha virt. eigenvalues --    2.20693   2.21090   2.23318   2.26013   2.26471
 Alpha virt. eigenvalues --    2.28714   2.29097   2.30060   2.36075   2.37083
 Alpha virt. eigenvalues --    2.37649   2.39177   2.40535   2.41998   2.42085
 Alpha virt. eigenvalues --    2.45946   2.49324   2.50040   2.55892   2.59317
 Alpha virt. eigenvalues --    2.63407   2.63918   2.66170   2.67584   2.70705
 Alpha virt. eigenvalues --    2.73097   2.75138   2.75956   2.77305   2.79245
 Alpha virt. eigenvalues --    2.80433   2.81354   2.85496   2.90508   2.96799
 Alpha virt. eigenvalues --    3.01289   3.08968   3.11760   3.12964   3.24743
 Alpha virt. eigenvalues --    3.26624   3.27408   3.32617   3.40154   4.15044
 Alpha virt. eigenvalues --    4.24812   4.26578   4.31522   4.35987   4.37715
 Alpha virt. eigenvalues --    4.42165   4.43701   4.46060   4.48615   4.50180
 Alpha virt. eigenvalues --    4.58379   4.60378   4.68445   4.77870   5.50998
 Alpha virt. eigenvalues --    6.08414   6.85641
          Condensed to atoms (all electrons):
               1          2          3          4          5          6
     1  C    5.641844  -0.039529  -0.002564  -0.002910  -0.030647  -0.003437
     2  C   -0.039529   6.108546  -0.300817  -0.081730   0.093383   0.016326
     3  C   -0.002564  -0.300817   6.473070   0.259942  -0.422444  -0.071500
     4  N   -0.002910  -0.081730   0.259942   7.545015   0.451661  -0.207055
     5  C   -0.030647   0.093383  -0.422444   0.451661   5.792304   0.615076
     6  O   -0.003437   0.016326  -0.071500  -0.207055   0.615076   8.511777
     7  N   -0.001961   0.007999  -0.076997  -0.313238   0.127358  -0.098081
     8  C   -0.007024  -0.000477  -0.300957  -0.116482  -0.907194  -0.378412
     9  C    0.001978   0.005228   0.053496   0.023337   0.760043   0.385628
    10  C   -0.001562   0.003533  -0.087109  -0.065951  -1.440862  -0.105904
    11  C   -0.000015  -0.000528   0.001685  -0.002462   0.000037   0.007477
    12  C   -0.000008  -0.000012  -0.005641  -0.002166   0.016556  -0.015200
    13  C    0.000283  -0.000145   0.006499   0.025553   0.251604   0.068456
    14  H    0.412028  -0.086965   0.027377   0.000474  -0.001868   0.000007
    15  H    0.415582  -0.062943  -0.009222   0.000432   0.000161  -0.000053
    16  H    0.414485  -0.062967  -0.008677   0.000457   0.000714  -0.000052
    17  H   -0.037740   0.429565  -0.079857   0.006110  -0.002534  -0.000186
    18  H   -0.036047   0.427464  -0.075902   0.005988  -0.005756  -0.000181
    19  H    0.002609  -0.042127   0.425031  -0.054003  -0.023017   0.003983
    20  H    0.003051  -0.043210   0.428440  -0.054339  -0.025359   0.003986
    21  H   -0.003573   0.001099  -0.060733   0.247773   0.018588   0.009119
    22  H   -0.000075   0.000636  -0.003381   0.008787  -0.026477   0.007208
    23  H    0.000003   0.000054   0.002263  -0.000276   0.006745  -0.000385
    24  H   -0.000001   0.000008  -0.000370   0.000878  -0.010786  -0.000000
    25  H    0.000000   0.000000   0.000017   0.000010   0.002098   0.000001
    26  Cl  -0.000001   0.000006  -0.000160   0.000060  -0.008695   0.000087
    27  C   -0.000049   0.000338  -0.009401   0.003443  -0.148759   0.006620
    28  F    0.000000   0.000007   0.000268  -0.000013   0.005736  -0.000611
    29  F    0.000000  -0.000001   0.000021   0.000001   0.002095  -0.000009
    30  F    0.000000  -0.000001   0.000028   0.000002   0.002485  -0.000012
               7          8          9         10         11         12
     1  C   -0.001961  -0.007024   0.001978  -0.001562  -0.000015  -0.000008
     2  C    0.007999  -0.000477   0.005228   0.003533  -0.000528  -0.000012
     3  C   -0.076997  -0.300957   0.053496  -0.087109   0.001685  -0.005641
     4  N   -0.313238  -0.116482   0.023337  -0.065951  -0.002462  -0.002166
     5  C    0.127358  -0.907194   0.760043  -1.440862   0.000037   0.016556
     6  O   -0.098081  -0.378412   0.385628  -0.105904   0.007477  -0.015200
     7  N    7.710871  -0.142867  -0.302014   0.340319   0.064776   0.037818
     8  C   -0.142867  16.012740  -2.921952   0.569953  -0.095049  -1.629030
     9  C   -0.302014  -2.921952  12.474689  -5.475900  -0.128454  -2.235634
    10  C    0.340319   0.569953  -5.475900  14.883701  -0.505362  -0.024081
    11  C    0.064776  -0.095049  -0.128454  -0.505362   8.547042  -0.872117
    12  C    0.037818  -1.629030  -2.235634  -0.024081  -0.872117  15.790674
    13  C    0.054774  -3.122283   2.423676  -1.695345  -0.963862  -4.046723
    14  H    0.000008  -0.000037   0.000003  -0.000001   0.000000  -0.000000
    15  H    0.000015   0.000026  -0.000028   0.000002   0.000000   0.000000
    16  H    0.000018   0.000029  -0.000021   0.000001   0.000000   0.000000
    17  H    0.000133  -0.000468  -0.000048   0.000102  -0.000001   0.000002
    18  H    0.000021  -0.000495  -0.000173   0.000115   0.000001   0.000001
    19  H   -0.000142  -0.005291   0.003363  -0.000850  -0.000023   0.000011
    20  H   -0.000294  -0.004692   0.002605  -0.000663  -0.000023   0.000016
    21  H    0.018496   0.014616   0.000715  -0.001116  -0.000052   0.000007
    22  H    0.246402  -0.010870   0.033155  -0.040065   0.017345  -0.005141
    23  H   -0.014892   0.104777   0.325655   0.060774  -0.030810  -0.072519
    24  H   -0.010851   0.024329   0.053454   0.320200  -0.072019  -0.035675
    25  H    0.000483   0.008135  -0.005137  -0.056449   0.251464   0.007233
    26  Cl  -0.000994  -0.001996   0.020056   0.101419  -0.089957  -0.331052
    27  C    0.003713  -1.075946  -0.211477   0.501486   0.009186  -0.495701
    28  F   -0.000995   0.117406   0.063029   0.000699   0.014431  -0.031128
    29  F    0.000237   0.033570   0.043916  -0.017652   0.000944  -0.246233
    30  F    0.000254   0.034169   0.044665  -0.019632   0.002730  -0.247252
              13         14         15         16         17         18
     1  C    0.000283   0.412028   0.415582   0.414485  -0.037740  -0.036047
     2  C   -0.000145  -0.086965  -0.062943  -0.062967   0.429565   0.427464
     3  C    0.006499   0.027377  -0.009222  -0.008677  -0.079857  -0.075902
     4  N    0.025553   0.000474   0.000432   0.000457   0.006110   0.005988
     5  C    0.251604  -0.001868   0.000161   0.000714  -0.002534  -0.005756
     6  O    0.068456   0.000007  -0.000053  -0.000052  -0.000186  -0.000181
     7  N    0.054774   0.000008   0.000015   0.000018   0.000133   0.000021
     8  C   -3.122283  -0.000037   0.000026   0.000029  -0.000468  -0.000495
     9  C    2.423676   0.000003  -0.000028  -0.000021  -0.000048  -0.000173
    10  C   -1.695345  -0.000001   0.000002   0.000001   0.000102   0.000115
    11  C   -0.963862   0.000000   0.000000   0.000000  -0.000001   0.000001
    12  C   -4.046723  -0.000000   0.000000   0.000000   0.000002   0.000001
    13  C   15.368961  -0.000000   0.000000   0.000001  -0.000002  -0.000005
    14  H   -0.000000   0.481007  -0.023799  -0.023785  -0.002999  -0.002980
    15  H    0.000000  -0.023799   0.486787  -0.028344  -0.004548   0.003765
    16  H    0.000001  -0.023785  -0.028344   0.486696   0.003764  -0.004561
    17  H   -0.000002  -0.002999  -0.004548   0.003764   0.489277  -0.030628
    18  H   -0.000005  -0.002980   0.003765  -0.004561  -0.030628   0.489313
    19  H    0.000177  -0.000055  -0.000329   0.002607   0.003654  -0.005294
    20  H    0.000161  -0.000056   0.002622  -0.000324  -0.005336   0.003662
    21  H   -0.000307  -0.000003   0.000000   0.000000   0.000588   0.000581
    22  H    0.006496  -0.000000  -0.000000  -0.000000   0.000001   0.000001
    23  H   -0.090272  -0.000000  -0.000000  -0.000000  -0.000000  -0.000000
    24  H    0.026213   0.000000  -0.000000  -0.000000   0.000000   0.000000
    25  H    0.107906  -0.000000   0.000000   0.000000   0.000000   0.000000
    26  Cl   0.005186  -0.000000  -0.000000  -0.000000  -0.000000  -0.000000
    27  C   -1.701097  -0.000000  -0.000000  -0.000000  -0.000000  -0.000000
    28  F   -0.221453   0.000000  -0.000000   0.000000  -0.000000  -0.000000
    29  F    0.270603  -0.000000  -0.000000   0.000000   0.000000  -0.000000
    30  F    0.272558  -0.000000   0.000000  -0.000000  -0.000000   0.000000
              19         20         21         22         23         24
     1  C    0.002609   0.003051  -0.003573  -0.000075   0.000003  -0.000001
     2  C   -0.042127  -0.043210   0.001099   0.000636   0.000054   0.000008
     3  C    0.425031   0.428440  -0.060733  -0.003381   0.002263  -0.000370
     4  N   -0.054003  -0.054339   0.247773   0.008787  -0.000276   0.000878
     5  C   -0.023017  -0.025359   0.018588  -0.026477   0.006745  -0.010786
     6  O    0.003983   0.003986   0.009119   0.007208  -0.000385  -0.000000
     7  N   -0.000142  -0.000294   0.018496   0.246402  -0.014892  -0.010851
     8  C   -0.005291  -0.004692   0.014616  -0.010870   0.104777   0.024329
     9  C    0.003363   0.002605   0.000715   0.033155   0.325655   0.053454
    10  C   -0.000850  -0.000663  -0.001116  -0.040065   0.060774   0.320200
    11  C   -0.000023  -0.000023  -0.000052   0.017345  -0.030810  -0.072019
    12  C    0.000011   0.000016   0.000007  -0.005141  -0.072519  -0.035675
    13  C    0.000177   0.000161  -0.000307   0.006496  -0.090272   0.026213
    14  H   -0.000055  -0.000056  -0.000003  -0.000000  -0.000000   0.000000
    15  H   -0.000329   0.002622   0.000000  -0.000000  -0.000000  -0.000000
    16  H    0.002607  -0.000324   0.000000  -0.000000  -0.000000  -0.000000
    17  H    0.003654  -0.005336   0.000588   0.000001  -0.000000   0.000000
    18  H   -0.005294   0.003662   0.000581   0.000001  -0.000000   0.000000
    19  H    0.494161  -0.038502   0.002053   0.000005   0.000000   0.000000
    20  H   -0.038502   0.494248   0.002050   0.000005  -0.000000   0.000000
    21  H    0.002053   0.002050   0.265521   0.002036  -0.000000   0.000003
    22  H    0.000005   0.000005   0.002036   0.254626  -0.000127   0.004328
    23  H    0.000000  -0.000000  -0.000000  -0.000127   0.409930  -0.000097
    24  H    0.000000   0.000000   0.000003   0.004328  -0.000097   0.420805
    25  H   -0.000000  -0.000000  -0.000000  -0.000008   0.000009  -0.003297
    26  Cl  -0.000000  -0.000000   0.000000   0.000023   0.000688   0.000405
    27  C   -0.000011  -0.000013  -0.000012   0.001022  -0.005707   0.006172
    28  F   -0.000000  -0.000000   0.000000  -0.000001   0.008260  -0.000001
    29  F   -0.000000   0.000000  -0.000000   0.000000  -0.000069   0.000001
    30  F    0.000000  -0.000000  -0.000000   0.000000  -0.000064   0.000001
              25         26         27         28         29         30
     1  C    0.000000  -0.000001  -0.000049   0.000000   0.000000   0.000000
     2  C    0.000000   0.000006   0.000338   0.000007  -0.000001  -0.000001
     3  C    0.000017  -0.000160  -0.009401   0.000268   0.000021   0.000028
     4  N    0.000010   0.000060   0.003443  -0.000013   0.000001   0.000002
     5  C    0.002098  -0.008695  -0.148759   0.005736   0.002095   0.002485
     6  O    0.000001   0.000087   0.006620  -0.000611  -0.000009  -0.000012
     7  N    0.000483  -0.000994   0.003713  -0.000995   0.000237   0.000254
     8  C    0.008135  -0.001996  -1.075946   0.117406   0.033570   0.034169
     9  C   -0.005137   0.020056  -0.211477   0.063029   0.043916   0.044665
    10  C   -0.056449   0.101419   0.501486   0.000699  -0.017652  -0.019632
    11  C    0.251464  -0.089957   0.009186   0.014431   0.000944   0.002730
    12  C    0.007233  -0.331052  -0.495701  -0.031128  -0.246233  -0.247252
    13  C    0.107906   0.005186  -1.701097  -0.221453   0.270603   0.272558
    14  H   -0.000000  -0.000000  -0.000000   0.000000  -0.000000  -0.000000
    15  H    0.000000  -0.000000  -0.000000  -0.000000  -0.000000   0.000000
    16  H    0.000000  -0.000000  -0.000000   0.000000   0.000000  -0.000000
    17  H    0.000000  -0.000000  -0.000000  -0.000000   0.000000  -0.000000
    18  H    0.000000  -0.000000  -0.000000  -0.000000  -0.000000   0.000000
    19  H   -0.000000  -0.000000  -0.000011  -0.000000  -0.000000   0.000000
    20  H   -0.000000  -0.000000  -0.000013  -0.000000   0.000000  -0.000000
    21  H   -0.000000   0.000000  -0.000012   0.000000  -0.000000  -0.000000
    22  H   -0.000008   0.000023   0.001022  -0.000001   0.000000   0.000000
    23  H    0.000009   0.000688  -0.005707   0.008260  -0.000069  -0.000064
    24  H   -0.003297   0.000405   0.006172  -0.000001   0.000001   0.000001
    25  H    0.407457  -0.000062  -0.000978   0.000011  -0.000001  -0.000001
    26  Cl  -0.000062  17.038847   0.026091   0.000767  -0.000060  -0.000210
    27  C   -0.000978   0.026091   7.545080   0.168720   0.040672   0.038492
    28  F    0.000011   0.000767   0.168720   9.281739  -0.036020  -0.036121
    29  F   -0.000001  -0.000060   0.040672  -0.036020   9.234179  -0.049448
    30  F   -0.000001  -0.000210   0.038492  -0.036121  -0.049448   9.233999
 Mulliken charges:
               1
     1  C   -0.724722
     2  C   -0.372741
     3  C   -0.162407
     4  N   -0.679296
     5  C    0.907755
     6  O   -0.754672
     7  N   -0.650366
     8  C   -0.198230
     9  C    0.562149
    10  C   -1.243799
    11  C   -0.156385
    12  C    0.442996
    13  C   -1.047610
    14  H    0.221645
    15  H    0.219873
    16  H    0.219958
    17  H    0.231152
    18  H    0.231110
    19  H    0.231990
    20  H    0.231965
    21  H    0.482552
    22  H    0.504068
    23  H    0.296060
    24  H    0.276298
    25  H    0.281108
    26  Cl   0.239549
    27  C    1.298117
    28  F   -0.334730
    29  F   -0.276747
    30  F   -0.276642
 Sum of Mulliken charges =  -0.00000
 Mulliken charges with hydrogens summed into heavy atoms:
               1
     1  C   -0.063246
     2  C    0.089521
     3  C    0.301548
     4  N   -0.196744
     5  C    0.907755
     6  O   -0.754672
     7  N   -0.146297
     8  C   -0.198230
     9  C    0.858209
    10  C   -0.967501
    11  C    0.124723
    12  C    0.442996
    13  C   -1.047610
    26  Cl   0.239549
    27  C    1.298117
    28  F   -0.334730
    29  F   -0.276747
    30  F   -0.276642
 APT charges:
               1
     1  C   -2.662940
     2  C   -0.734802
     3  C   -0.215916
     4  N   -0.254381
     5  C    0.598735
     6  O   -0.818268
     7  N   -0.980733
     8  C   -1.390526
     9  C   -0.113410
    10  C   -0.861881
    11  C   -0.611739
    12  C    1.820813
    13  C   -0.804875
    14  H    1.180207
    15  H    0.352033
    16  H    0.361714
    17  H    0.508719
    18  H    0.517989
    19  H    0.376749
    20  H    0.370244
    21  H    0.857055
    22  H    0.873890
    23  H    0.410817
    24  H    0.701709
    25  H    0.922773
    26  Cl  -0.099699
    27  C    0.102233
    28  F   -0.298916
    29  F   -0.053708
    30  F   -0.053887
 Sum of APT charges =  -0.00000
 APT charges with hydrogens summed into heavy atoms:
               1
     1  C   -0.768985
     2  C    0.291905
     3  C    0.531077
     4  N    0.602674
     5  C    0.598735
     6  O   -0.818268
     7  N   -0.106843
     8  C   -1.390526
     9  C    0.297408
    10  C   -0.160172
    11  C    0.311034
    12  C    1.820813
    13  C   -0.804875
    26  Cl  -0.099699
    27  C    0.102233
    28  F   -0.298916
    29  F   -0.053708
    30  F   -0.053887
 Electronic spatial extent (au):  <R**2>=           8320.5344
 Charge=             -0.0000 electrons
 Dipole moment (field-independent basis, Debye):
    X=              7.6328    Y=             -9.1671    Z=              0.1281  Tot=             11.9294
 Quadrupole moment (field-independent basis, Debye-Ang):
   XX=           -100.7276   YY=           -100.5295   ZZ=           -115.9404
   XY=             -8.3076   XZ=              0.3356   YZ=              0.0018
 Traceless Quadrupole moment (field-independent basis, Debye-Ang):
   XX=              5.0049   YY=              5.2030   ZZ=            -10.2079
   XY=             -8.3076   XZ=              0.3356   YZ=              0.0018
 Octapole moment (field-independent basis, Debye-Ang**2):
  XXX=            159.0116  YYY=            -33.5804  ZZZ=              0.0111  XYY=             -2.8569
  XXY=            -47.5267  XXZ=              0.9237  XZZ=             -7.7281  YZZ=             15.0626
  YYZ=              0.4406  XYZ=             -0.0906
 Hexadecapole moment (field-independent basis, Debye-Ang**3):
 XXXX=          -8658.2037 YYYY=          -1156.9012 ZZZZ=           -217.3076 XXXY=           -219.4878
 XXXZ=              3.8644 YYYX=           -107.1601 YYYZ=             -0.1150 ZZZX=             -0.5546
 ZZZY=             -0.0211 XXYY=          -1719.2600 XXZZ=          -1601.5782 YYZZ=           -265.3455
 XXYZ=             -0.3822 YYXZ=              1.3369 ZZXY=            -25.5941
 N-N= 1.427964771891D+03 E-N=-6.081074427058D+03  KE= 1.361197420715D+03
  Exact polarizability:   0.000   0.000   0.000   0.000   0.000   0.000
 Approx polarizability: 241.856   1.200 199.757   0.152  -0.216 133.299
 D2PCM: PCM CHGder 2nd derivatives, FixD1E=F FixD2E=F DoIter=F DoCFld=F I1PDM=0
 Calling FoFJK, ICntrl=    100147 FMM=F ISym2X=0 I1Cent= 0 IOpClX= 0 NMat=1 NMatS=1 NMatT=0.
 ***** Axes restored to original set *****
 -------------------------------------------------------------------
 Center     Atomic                   Forces (Hartrees/Bohr)
 Number     Number              X              Y              Z
 -------------------------------------------------------------------
      1        6          -0.004969914    0.001696384   -0.000265191
      2        6           0.004510757   -0.005443892    0.000816189
      3        6          -0.006242394    0.006657504   -0.001119663
      4        7           0.018811737   -0.028450329    0.004539947
      5        6          -0.014079075   -0.008875357    0.001423117
      6        8           0.001804820    0.036932299   -0.005990046
      7        7           0.020752692   -0.016941886    0.002658674
      8        6          -0.013288006    0.002368834   -0.000519017
      9        6           0.011183936   -0.003622696    0.000604401
     10        6          -0.001601714    0.004937757   -0.000817339
     11        6          -0.005159911    0.004582291   -0.000932170
     12        6          -0.002088358    0.005670629   -0.001057901
     13        6          -0.003133460   -0.015054391    0.002773843
     14        1           0.005984116    0.009017142   -0.001348740
     15        1          -0.000806231   -0.003326956    0.009707106
     16        1          -0.000726540   -0.006107421   -0.008251807
     17        1           0.001180263    0.005198346    0.008548238
     18        1           0.001287238    0.002366301   -0.009656443
     19        1           0.000497178   -0.005147354   -0.009185780
     20        1           0.000517292   -0.002024682    0.010338533
     21        1          -0.002108613    0.014232299   -0.002255206
     22        1           0.004837228    0.012709695   -0.002084428
     23        1          -0.007348956    0.002114779   -0.000374623
     24        1          -0.001987884   -0.002132851    0.000383222
     25        1           0.001435857   -0.000422429    0.000088167
     26       17          -0.007862396   -0.001466948    0.000246229
     27        6          -0.003919033   -0.000080849   -0.000037326
     28        9           0.037022820   -0.016190721    0.003173366
     29        9          -0.017393576    0.009225353    0.030968655
     30        9          -0.017109871   -0.002420849   -0.032374007
 -------------------------------------------------------------------
 Cartesian Forces:  Max     0.037022820 RMS     0.010580025
 FormGI is forming the generalized inverse of G from B-inverse, IUseBI=4.
 GSVD:  received Info=                   1 from GESDD.

 GradGradGradGradGradGradGradGradGradGradGradGradGradGradGradGradGradGrad
 Berny optimization.
 Internal  Forces:  Max     0.039933409 RMS     0.008877144
 Search for a local minimum.
 Step number   1 out of a maximum of  157
 All quantities printed in internal units (Hartrees-Bohrs-Radians)
 Mixed Optimization -- RFO/linear search
 Second derivative matrix not updated -- analytic derivatives used.
 ITU=  0
     Eigenvalues ---   -0.00160  -0.00010   0.00143   0.00201   0.00256
     Eigenvalues ---    0.00325   0.00553   0.00587   0.01238   0.01621
     Eigenvalues ---    0.01691   0.01849   0.02050   0.02300   0.02413
     Eigenvalues ---    0.02594   0.02694   0.03058   0.03627   0.03863
     Eigenvalues ---    0.04497   0.04542   0.04585   0.05054   0.05971
     Eigenvalues ---    0.06820   0.08158   0.10212   0.10480   0.10959
     Eigenvalues ---    0.11330   0.11446   0.12484   0.12648   0.12928
     Eigenvalues ---    0.13277   0.13559   0.14181   0.15547   0.16013
     Eigenvalues ---    0.16419   0.17894   0.18365   0.18565   0.18973
     Eigenvalues ---    0.19287   0.21602   0.21839   0.22992   0.23586
     Eigenvalues ---    0.23905   0.24659   0.24976   0.27423   0.29604
     Eigenvalues ---    0.30362   0.30403   0.30613   0.30902   0.30968
     Eigenvalues ---    0.31214   0.31465   0.31632   0.32051   0.32220
     Eigenvalues ---    0.32989   0.33118   0.36914   0.37698   0.37766
     Eigenvalues ---    0.37888   0.39153   0.40700   0.41148   0.41639
     Eigenvalues ---    0.42515   0.43671   0.44878   0.46555   0.47807
     Eigenvalues ---    0.49056   0.50138   0.57545   0.87786
 RFO step:  Lambda=-2.64741906D-02 EMin=-1.59741728D-03
 Linear search not attempted -- first point.
 Iteration  1 RMS(Cart)=  0.20171945 RMS(Int)=  0.02553639
 Iteration  2 RMS(Cart)=  0.07510659 RMS(Int)=  0.00243747
 Iteration  3 RMS(Cart)=  0.00344075 RMS(Int)=  0.00139194
 Iteration  4 RMS(Cart)=  0.00000957 RMS(Int)=  0.00139193
 Iteration  5 RMS(Cart)=  0.00000002 RMS(Int)=  0.00139193
 Variable       Old X    -DE/DX   Delta X   Delta X   Delta X     New X
                                 (Linear)    (Quad)   (Total)
    R1        2.88355   0.00103   0.00000   0.00046   0.00046   2.88401
    R2        2.09830  -0.01062   0.00000  -0.02993  -0.02993   2.06837
    R3        2.09930  -0.01005   0.00000  -0.02817  -0.02817   2.07113
    R4        2.09926  -0.01005   0.00000  -0.02823  -0.02823   2.07103
    R5        2.89699  -0.00708   0.00000  -0.02034  -0.02034   2.87665
    R6        2.10115  -0.00963   0.00000  -0.02843  -0.02843   2.07272
    R7        2.10103  -0.00958   0.00000  -0.02685  -0.02685   2.07418
    R8        2.74533   0.00020   0.00000   0.00810   0.00810   2.75343
    R9        2.10232  -0.01018   0.00000  -0.02737  -0.02737   2.07495
   R10        2.10229  -0.01018   0.00000  -0.03247  -0.03247   2.06983
   R11        2.57629  -0.00938   0.00000  -0.02711  -0.02711   2.54918
   R12        1.95073  -0.01448   0.00000  -0.03379  -0.03379   1.91694
   R13        2.30646   0.03733   0.00000   0.03488   0.03488   2.34133
   R14        2.58800   0.00335   0.00000   0.01669   0.01669   2.60469
   R15        2.72230  -0.03372   0.00000  -0.08793  -0.08793   2.63438
   R16        1.95051  -0.01314   0.00000  -0.03096  -0.03096   1.91955
   R17        2.67734  -0.01790   0.00000  -0.03184  -0.03181   2.64553
   R18        2.65637  -0.00778   0.00000  -0.00599  -0.00600   2.65037
   R19        2.66834  -0.01689   0.00000  -0.03367  -0.03364   2.63470
   R20        2.02476   0.00679   0.00000   0.01414   0.01414   2.03890
   R21        2.63202  -0.00567   0.00000  -0.01141  -0.01144   2.62057
   R22        2.04671   0.00247   0.00000   0.00610   0.00610   2.05281
   R23        2.63470  -0.00601   0.00000  -0.00610  -0.00612   2.62858
   R24        2.04631   0.00135   0.00000   0.00380   0.00380   2.05011
   R25        2.66623  -0.01283   0.00000  -0.03041  -0.03041   2.63583
   R26        3.32990  -0.00797   0.00000  -0.02977  -0.02977   3.30013
   R27        2.86478  -0.00970   0.00000  -0.01894  -0.01894   2.84584
   R28        2.61617  -0.03993   0.00000  -0.08824  -0.08824   2.52793
   R29        2.61391  -0.03459   0.00000  -0.07512  -0.07512   2.53879
   R30        2.61384  -0.03459   0.00000  -0.07331  -0.07331   2.54053
    A1        1.91262   0.00283   0.00000   0.01922   0.01908   1.93170
    A2        1.92587   0.00206   0.00000   0.01094   0.01086   1.93673
    A3        1.92569   0.00208   0.00000   0.00782   0.00777   1.93346
    A4        1.89665  -0.00227   0.00000  -0.01068  -0.01083   1.88582
    A5        1.89682  -0.00229   0.00000  -0.01102  -0.01113   1.88569
    A6        1.90569  -0.00256   0.00000  -0.01700  -0.01701   1.88869
    A7        1.94132  -0.00180   0.00000  -0.00371  -0.00369   1.93763
    A8        1.90094   0.00186   0.00000   0.01522   0.01521   1.91615
    A9        1.90128   0.00184   0.00000   0.01200   0.01199   1.91327
   A10        1.91011  -0.00013   0.00000  -0.00358  -0.00360   1.90651
   A11        1.91122  -0.00016   0.00000  -0.00247  -0.00248   1.90874
   A12        1.89845  -0.00160   0.00000  -0.01773  -0.01783   1.88062
   A13        1.93760  -0.00438   0.00000  -0.01289  -0.01285   1.92476
   A14        1.90646   0.00168   0.00000   0.01320   0.01320   1.91966
   A15        1.90469   0.00182   0.00000   0.01200   0.01198   1.91667
   A16        1.90614   0.00163   0.00000   0.00805   0.00809   1.91423
   A17        1.90621   0.00156   0.00000  -0.00185  -0.00181   1.90440
   A18        1.90241  -0.00231   0.00000  -0.01878  -0.01882   1.88359
   A19        2.12684  -0.00312   0.00000  -0.00989  -0.01886   2.10798
   A20        2.07742   0.00002   0.00000  -0.00520  -0.01407   2.06335
   A21        2.07893   0.00310   0.00000   0.01544   0.00604   2.08497
   A22        2.08030   0.01677   0.00000   0.04924   0.04922   2.12952
   A23        2.08439  -0.02635   0.00000  -0.07762  -0.07763   2.00676
   A24        2.11849   0.00958   0.00000   0.02839   0.02837   2.14687
   A25        2.23780  -0.00362   0.00000  -0.00245  -0.00545   2.23235
   A26        2.02467   0.00578   0.00000   0.01011   0.00704   2.03171
   A27        2.02072  -0.00217   0.00000  -0.00775  -0.01073   2.00999
   A28        2.17566  -0.00366   0.00000  -0.00937  -0.00954   2.16612
   A29        2.04983  -0.00286   0.00000  -0.00475  -0.00492   2.04490
   A30        2.05770   0.00652   0.00000   0.01406   0.01393   2.07163
   A31        2.11617  -0.00495   0.00000  -0.01917  -0.01910   2.09707
   A32        2.12180  -0.00111   0.00000  -0.01686  -0.01690   2.10490
   A33        2.04521   0.00606   0.00000   0.03603   0.03598   2.08119
   A34        2.11722  -0.00338   0.00000  -0.00496  -0.00498   2.11223
   A35        2.09941   0.00006   0.00000  -0.00918  -0.00917   2.09024
   A36        2.06655   0.00331   0.00000   0.01414   0.01415   2.08071
   A37        2.10369  -0.00349   0.00000  -0.00899  -0.00903   2.09466
   A38        2.08358   0.00241   0.00000   0.00999   0.01001   2.09359
   A39        2.09592   0.00109   0.00000  -0.00100  -0.00098   2.09493
   A40        2.09427  -0.00134   0.00000  -0.00669  -0.00669   2.08758
   A41        2.05767   0.00189   0.00000   0.01196   0.01196   2.06963
   A42        2.13124  -0.00055   0.00000  -0.00527  -0.00527   2.12597
   A43        2.07732   0.00664   0.00000   0.02574   0.02579   2.10311
   A44        2.10634  -0.00877   0.00000  -0.03531  -0.03535   2.07099
   A45        2.09952   0.00213   0.00000   0.00956   0.00952   2.10904
   A46        1.95786   0.00535   0.00000   0.00464   0.00445   1.96231
   A47        1.91260   0.01714   0.00000   0.04505   0.04441   1.95701
   A48        1.91287   0.01712   0.00000   0.04610   0.04549   1.95835
   A49        1.88695  -0.01240   0.00000  -0.02479  -0.02499   1.86196
   A50        1.88706  -0.01242   0.00000  -0.02958  -0.02973   1.85733
   A51        1.90564  -0.01624   0.00000  -0.04507  -0.04604   1.85960
    D1        3.13990   0.00002   0.00000  -0.01113  -0.01111   3.12879
    D2        1.03325   0.00010   0.00000  -0.01431  -0.01429   1.01896
    D3       -1.03503  -0.00011   0.00000  -0.00866  -0.00866  -1.04370
    D4        1.05207  -0.00023   0.00000  -0.01682  -0.01686   1.03521
    D5       -1.05458  -0.00016   0.00000  -0.02001  -0.02003  -1.07461
    D6       -3.12286  -0.00036   0.00000  -0.01435  -0.01441  -3.13727
    D7       -1.05536   0.00027   0.00000  -0.00779  -0.00777  -1.06313
    D8        3.12117   0.00034   0.00000  -0.01098  -0.01094   3.11023
    D9        1.05289   0.00014   0.00000  -0.00533  -0.00532   1.04758
   D10       -3.14154  -0.00003   0.00000  -0.02978  -0.02978   3.11187
   D11        1.03867  -0.00038   0.00000  -0.04026  -0.04023   0.99844
   D12       -1.03962   0.00034   0.00000  -0.03238  -0.03241  -1.07203
   D13       -1.04029   0.00105   0.00000  -0.01551  -0.01552  -1.05581
   D14        3.13992   0.00070   0.00000  -0.02598  -0.02598   3.11394
   D15        1.06163   0.00143   0.00000  -0.01811  -0.01815   1.04347
   D16        1.03925  -0.00107   0.00000  -0.04077  -0.04075   0.99850
   D17       -1.06373  -0.00142   0.00000  -0.05124  -0.05120  -1.11494
   D18        3.14116  -0.00069   0.00000  -0.04337  -0.04338   3.09778
   D19        3.13595   0.00007   0.00000   0.01979   0.01883  -3.12840
   D20       -0.00403   0.00003   0.00000  -0.23216  -0.23118  -0.23521
   D21       -1.04406   0.00045   0.00000   0.03331   0.03234  -1.01173
   D22        2.09914   0.00042   0.00000  -0.21864  -0.21767   1.88147
   D23        1.03493  -0.00046   0.00000   0.01419   0.01321   1.04814
   D24       -2.10505  -0.00049   0.00000  -0.23776  -0.23681  -2.34185
   D25        0.00014  -0.00002   0.00000  -0.15883  -0.15932  -0.15918
   D26        3.14105  -0.00004   0.00000  -0.14946  -0.14989   2.99116
   D27        3.14012   0.00001   0.00000   0.09331   0.09373  -3.04933
   D28       -0.00215  -0.00001   0.00000   0.10268   0.10316   0.10101
   D29        3.13681   0.00006   0.00000  -0.00230  -0.00204   3.13478
   D30       -0.00551   0.00001   0.00000  -0.15412  -0.15432  -0.15983
   D31       -0.00547   0.00005   0.00000   0.00729   0.00750   0.00203
   D32        3.13539  -0.00000   0.00000  -0.14452  -0.14478   2.99061
   D33       -0.01765   0.00001   0.00000  -0.34369  -0.34314  -0.36079
   D34        3.12624  -0.00002   0.00000  -0.31009  -0.30981   2.81643
   D35        3.12466   0.00005   0.00000  -0.19217  -0.19246   2.93221
   D36       -0.01463   0.00002   0.00000  -0.15857  -0.15913  -0.17376
   D37       -3.13958  -0.00003   0.00000   0.02077   0.02079  -3.11879
   D38       -0.00028   0.00003   0.00000   0.01563   0.01574   0.01547
   D39       -0.00030  -0.00002   0.00000  -0.01299  -0.01304  -0.01334
   D40        3.13900   0.00004   0.00000  -0.01813  -0.01808   3.12092
   D41        3.14044  -0.00000   0.00000  -0.02199  -0.02207   3.11837
   D42       -0.00159   0.00001   0.00000  -0.02306  -0.02313  -0.02471
   D43        0.00099  -0.00002   0.00000   0.00932   0.00942   0.01041
   D44       -3.14104  -0.00000   0.00000   0.00824   0.00836  -3.13267
   D45       -0.00051   0.00003   0.00000   0.00620   0.00620   0.00570
   D46        3.14032   0.00004   0.00000  -0.00313  -0.00309   3.13723
   D47       -3.13991  -0.00002   0.00000   0.01118   0.01125  -3.12866
   D48        0.00092  -0.00001   0.00000   0.00185   0.00196   0.00287
   D49       -0.00086   0.00004   0.00000   0.00118   0.00120   0.00034
   D50        3.14116   0.00001   0.00000  -0.00295  -0.00292   3.13824
   D51        3.14116   0.00002   0.00000   0.00224   0.00226  -3.13976
   D52       -0.00001  -0.00000   0.00000  -0.00189  -0.00186  -0.00187
   D53        0.00001  -0.00001   0.00000  -0.00828  -0.00822  -0.00821
   D54       -3.14096  -0.00003   0.00000  -0.00952  -0.00945   3.13277
   D55        3.14118   0.00001   0.00000  -0.00412  -0.00409   3.13708
   D56        0.00020  -0.00001   0.00000  -0.00536  -0.00532  -0.00512
   D57        0.00065  -0.00001   0.00000   0.00459   0.00456   0.00521
   D58       -3.14017  -0.00002   0.00000   0.01390   0.01407  -3.12610
   D59       -3.14158   0.00001   0.00000   0.00589   0.00583  -3.13575
   D60        0.00077   0.00000   0.00000   0.01520   0.01535   0.01612
   D61        0.00041   0.00001   0.00000  -0.00177  -0.00182  -0.00141
   D62       -2.09559   0.00054   0.00000  -0.00408  -0.00384  -2.09943
   D63        2.09673  -0.00057   0.00000  -0.00477  -0.00515   2.09158
   D64        3.14122   0.00002   0.00000  -0.01121  -0.01113   3.13009
   D65        1.04522   0.00055   0.00000  -0.01352  -0.01315   1.03207
   D66       -1.04564  -0.00056   0.00000  -0.01421  -0.01447  -1.06011
         Item               Value     Threshold  Converged?
 Maximum Force            0.039933     0.000450     NO 
 RMS     Force            0.008877     0.000300     NO 
 Maximum Displacement     0.843871     0.001800     NO 
 RMS     Displacement     0.267137     0.001200     NO 
 Predicted change in Energy=-1.460770D-02
 GradGradGradGradGradGradGradGradGradGradGradGradGradGradGradGradGradGrad

                          Input orientation:                          
 ---------------------------------------------------------------------
 Center     Atomic      Atomic             Coordinates (Angstroms)
 Number     Number       Type             X           Y           Z
 ---------------------------------------------------------------------
      1          6           0       -1.916533    2.067684    0.101900
      2          6           0       -0.536488    1.462912   -0.140721
      3          6           0        0.549172    2.526104   -0.049944
      4          7           0        1.862191    1.925008   -0.244015
      5          6           0        2.980577    2.677354   -0.190193
[...]
 5,-0.00001239,-0.00000384,-0.00000492,0.00002488,-0.00000252,-0.000003
 63,0.00000138,-0.00001053,-0.00002979,0.00029716,-0.00001017,0.0000918
 3,0.00009213,-0.00000142,-0.00045728,-0.01054815,-0.04158045,0.0309240
 7,-0.00000541,-0.00001357,0.00000509,-0.00001456,0.00003034,-0.0000123
 2,0.00004946,-0.00007892,0.00001927,-0.00035689,0.00004684,-0.00001644
 ,0.00040019,-0.00072172,0.00028637,-0.00007513,0.00027318,-0.00007854,
 -0.00139973,0.00127525,-0.00023248,-0.00287682,-0.00259786,0.00077549,
 -0.00049688,-0.00080913,0.00004585,-0.01607063,0.02023252,-0.00137400,
 -0.21299463,0.14993120,-0.00972247,0.00730215,-0.00803443,0.00081012,0
 .00033798,-0.00183929,0.00048492,-0.00000662,0.00000147,-0.00000079,-0
 .00000024,0.00000049,-0.00000081,-0.00000022,0.00000092,0.00000022,0.0
 0000042,-0.00000258,-0.00000037,0.00000084,-0.00000152,0.00000202,-0.0
 0001421,0.00000819,-0.00000027,-0.00001871,0.00000705,-0.00000792,0.00
 001112,0.00002866,-0.00001088,0.00004543,0.00008100,-0.00004640,0.0000
 6209,0.00010925,-0.00003932,0.00135844,0.00007053,-0.00027447,0.222906
 61,-0.00000172,-0.00000276,0.00000139,-0.00000544,0.00000600,-0.000002
 84,-0.00000017,-0.00002425,0.00000599,-0.00006447,0.00004599,-0.000024
 61,-0.00013694,-0.00014357,0.00006865,0.00001425,0.00002315,0.00000236
 ,-0.00021677,0.00063272,-0.00011835,-0.00282446,0.00010333,0.00101774,
 -0.00090825,-0.00007738,-0.00008457,-0.00860116,0.01102192,-0.00032271
 ,0.14798589,-0.19778790,0.01247120,0.02124876,-0.01601556,0.00136605,-
 0.00256121,-0.00440612,0.00129766,-0.00000123,0.00000045,-0.00000021,0
 .00000003,0.00000006,-0.00000004,0.00000009,0.00000003,-0.00000002,0.,
 -0.00000017,0.00000006,0.00000038,-0.00000009,0.00000008,-0.00000039,0
 .00000176,0.00000010,-0.00000019,0.00000140,-0.00000129,0.00000373,0.0
 0000363,-0.00000052,0.00003913,-0.00001031,-0.00001450,0.00008351,0.00
 004083,-0.00007260,0.00033790,0.00056568,-0.00063872,-0.15668694,0.205
 89465,0.00000052,0.00000108,-0.00000036,0.00000101,-0.00000157,0.00000
 269,-0.00000415,0.00001157,0.00000828,0.00002786,-0.00001049,-0.000007
 40,-0.00000831,-0.00003880,-0.00020310,0.00003375,0.00000360,0.0000344
 9,0.00010745,-0.00013761,0.00009210,0.00079263,0.00095090,0.00730382,0
 .00013492,-0.00000032,-0.00105949,0.00195503,-0.00182960,0.00453301,-0
 .00941931,0.01240115,-0.03887537,-0.00283924,0.00285680,0.00316542,0.0
 0062993,0.00128320,0.00516622,0.00000056,-0.00000018,0.,-0.00000013,0.
 00000010,-0.00000012,0.00000028,-0.00000018,-0.00000007,0.00000017,0.0
 0000018,0.00000007,-0.00000024,0.00000015,-0.00000026,-0.00000219,-0.0
 0000073,-0.00000022,0.00000470,0.00000005,-0.00000024,-0.00000216,-0.0
 0000254,0.00000089,-0.00000796,0.00001143,0.00002936,-0.00002628,-0.00
 006412,-0.00046487,-0.00032038,-0.00063177,-0.00455514,0.00947920,-0.0
 1456903,0.02688952,-0.00002136,-0.00005288,0.00001731,-0.00003428,0.00
 011807,-0.00004485,0.00032707,-0.00023358,0.00006275,-0.00172085,-0.00
 045129,0.00028690,0.00395754,-0.00252217,0.00045085,-0.00107762,0.0012
 0825,-0.00043801,-0.00631140,-0.00043735,0.00016256,0.00327496,0.00312
 040,-0.00064535,-0.00207799,0.00385083,0.00005508,0.00324032,-0.002558
 74,0.00021613,-0.02929318,-0.00992477,0.00300275,-0.16267078,-0.031213
 36,0.01042233,-0.03375917,-0.01142044,0.00325719,-0.00002762,0.0000056
 1,-0.00000333,-0.00000205,0.00000216,-0.00000293,-0.00000168,0.0000037
 1,0.00000081,0.00000118,-0.00001194,0.00000027,0.00000238,-0.00000778,
 0.00000759,-0.00009657,0.00003512,-0.00000464,-0.00011838,0.00003519,-
 0.00004042,0.00000483,0.00014640,-0.00007248,-0.00017746,0.00034262,0.
 00004429,-0.00092615,-0.00121370,0.00028557,-0.00125841,-0.00019196,0.
 00009049,0.00124081,0.00108377,-0.00036346,0.22977680,-0.00000470,-0.0
 0001116,0.00000391,-0.00000873,0.00002635,-0.00000964,0.00006918,-0.00
 005436,0.00001360,-0.00038855,-0.00006962,0.00005202,0.00086450,-0.000
 72095,0.00014999,-0.00001516,0.00037892,-0.00008511,-0.00149867,0.0000
 0059,-0.00008265,-0.00004097,0.00252256,-0.00040036,-0.00066897,-0.003
 96938,0.00103802,0.00332418,-0.00426166,0.00096353,-0.03686557,-0.0069
 6578,0.00314909,-0.03189752,-0.04798859,0.00465682,0.01333849,0.008420
 59,-0.00140326,-0.00000594,0.00000123,-0.00000074,-0.00000058,0.000000
 35,-0.00000075,-0.00000043,0.00000081,0.00000029,0.00000042,-0.0000023
 1,-0.00000002,0.00000091,-0.00000139,0.00000153,-0.00002094,0.00000805
 ,-0.00000067,-0.00002575,0.00000782,-0.00000967,0.00000417,0.00003370,
 -0.00001658,0.00002775,0.00007802,0.00001065,0.00044407,0.00027821,0.0
 0000409,-0.00124884,-0.00016365,0.00008186,-0.00087730,0.00052104,-0.0
 0034966,0.04982743,0.05781518,0.00000248,0.00000527,-0.00000203,0.0000
 0161,-0.00000927,0.00000427,-0.00002177,0.00002279,0.00002036,0.000125
 36,0.00004823,0.00002819,-0.00032993,0.00014502,-0.00019891,0.00015379
 ,-0.00009921,0.00000930,0.00051121,-0.00013074,-0.00059653,-0.00027639
 ,-0.00051063,-0.00051444,0.00053056,0.00085119,0.00392371,-0.00038644,
 0.00118718,0.00471200,0.00622464,0.00187185,0.00322114,0.01058122,0.00
 452165,-0.02205515,0.00013726,-0.00010114,0.00247997,0.00000211,-0.000
 00054,0.00000029,-0.00000040,-0.00000030,0.00000026,0.00000036,-0.0000
 0049,0.,-0.00000016,0.00000050,-0.00000031,0.00000031,0.00000143,-0.00
 000123,0.00000154,-0.00000871,-0.00000299,0.00001648,0.00000051,-0.000
 00289,-0.00000001,-0.00000683,0.00002136,0.00001118,-0.00000596,0.0000
 3935,-0.00001469,0.00008561,0.00057913,0.00021608,0.00002254,0.0000251
 5,-0.00012525,-0.00041950,-0.00245673,-0.01649205,-0.00781654,0.013966
 41,0.00000559,0.00001195,-0.00000485,0.00000261,-0.00002609,0.00001134
 ,-0.00008163,0.00005667,-0.00001466,0.00036117,0.00019482,-0.00010340,
 -0.00062740,-0.00011948,0.00007717,0.00078352,0.00019815,0.00007011,0.
 00099505,-0.00107638,0.00012399,-0.00670376,-0.00206298,0.00110823,-0.
 00153092,-0.02792974,0.00335155,-0.00289365,0.00136731,-0.00008828,-0.
 00296362,0.00613709,-0.00030968,0.01759743,0.02273214,-0.00360577,-0.0
 9712076,-0.02108043,0.00392882,0.00000804,-0.00000004,0.00000045,-0.00
 000025,-0.00000146,0.00000005,-0.00000068,-0.00000080,0.00000111,0.000
 00112,0.00000535,0.00000022,0.00000131,0.00000294,-0.00000289,0.000016
 46,-0.00000769,0.00000523,0.00002244,-0.00000985,0.00000563,0.00001561
 ,-0.00002763,0.00001512,-0.00027114,-0.00009343,-0.00001376,-0.0027552
 3,-0.00039518,-0.00009046,-0.00007335,0.00010743,-0.00004284,0.0004928
 2,0.00139467,-0.00017762,-0.00300067,-0.00175293,0.00018688,0.53066458
 ,0.00002440,0.00006446,-0.00002149,0.00004824,-0.00014143,0.00005640,-
 0.00037995,0.00031585,-0.00008700,0.00195702,0.00041983,-0.00027217,-0
 .00436853,0.00242139,-0.00057260,0.00181689,-0.00113706,0.00047451,0.0
 0545704,0.00103701,-0.00021200,-0.00372737,0.00174558,0.00077342,-0.01
 645303,-0.00656694,0.00202696,0.00184355,0.00289509,-0.00051773,0.0022
 6047,0.00199260,0.00025818,0.01188327,-0.02141983,0.00198268,-0.027797
 87,-0.21168697,0.01862385,0.00003333,-0.00000783,0.00000442,0.00000259
 ,-0.00000185,0.00000452,0.00000308,-0.00000561,-0.00000260,-0.00000187
 ,0.00001256,-0.00000194,-0.00000244,0.00001033,-0.00000803,0.00011091,
 -0.00004261,0.00000351,0.00012792,-0.00004131,0.00004768,-0.00001961,-
 0.00017098,0.00007927,0.00039531,-0.00029622,0.00004501,0.00130808,-0.
 00022547,-0.00057735,0.00024172,0.00011213,-0.00008473,-0.00033490,0.0
 0063270,0.00000243,-0.00554343,-0.00239706,0.00011932,0.00588974,0.604
 84534,-0.00000299,-0.00000906,0.00000257,-0.00000609,0.00002013,-0.000
 00441,0.00005558,-0.00003911,0.00003170,-0.00026396,-0.00008435,0.0000
 1116,0.00057961,-0.00028170,0.00009576,-0.00031658,0.00011278,-0.00003
 182,-0.00073510,-0.00016115,0.00022962,0.00116027,0.00091091,0.0067564
 1,0.00200912,0.00242594,0.00214016,-0.00004405,-0.00050864,-0.00090024
 ,0.00010908,-0.00003261,0.00530545,-0.00243344,0.00145554,-0.00108502,
 0.00512922,0.01831503,-0.06744726,-0.00000431,0.00000145,-0.00000028,-
 0.00000135,0.00000121,-0.00000264,0.00000057,-0.00000060,0.00000033,-0
 .00000283,-0.00000624,-0.00000037,0.00000317,0.00000218,-0.00000253,-0
 .00000864,0.00000437,-0.00000138,-0.00002339,0.00000506,-0.00001139,-0
 .00000232,0.00002552,0.00000362,-0.00006945,0.00002539,-0.00010914,-0.
 00014840,-0.00042200,-0.00405235,-0.00004510,-0.00009666,-0.00058390,0
 .00004408,-0.00005775,0.00068115,0.00062276,-0.00002537,-0.00317977,-0
 .00360446,-0.01440390,0.48384984,0.00000062,0.00000282,-0.00000041,0.0
 0000430,-0.00000653,0.00000260,-0.00001857,0.00001327,-0.00000383,0.00
 009138,-0.00000683,-0.00000970,-0.00021516,0.00034433,-0.00006765,-0.0
 0010066,-0.00012081,0.00001584,0.00045430,0.00011468,-0.00001843,0.001
 04571,-0.00022757,-0.00005372,-0.00430669,-0.00382086,0.00059725,0.000
 11495,-0.00019973,0.00003543,-0.00082921,0.00026361,-0.00001798,0.0029
 0074,0.00105866,-0.00015250,-0.00848802,0.00969837,-0.00034748,0.00000
 077,-0.00000106,0.00000040,0.00000050,0.00000053,0.00000043,0.00000084
 ,-0.00000017,-0.00000083,-0.00000101,-0.00000079,-0.00000053,-0.000000
 83,0.00000025,0.00000044,0.00000777,-0.00000190,-0.00000210,0.00000790
 ,-0.00000112,0.00000381,-0.00000416,-0.00000966,0.00000456,0.00001411,
 -0.00001834,0.00000399,0.00181917,-0.00301362,0.00025446,0.00016717,-0
 .00006870,0.00000413,0.00010602,0.00026985,-0.00005599,0.00005946,0.00
 035973,-0.00002704,-0.18894253,0.10793107,-0.00620457,0.31692912,-0.00
 000744,-0.00002068,0.00000676,-0.00001534,0.00004546,-0.00001781,0.000
 12290,-0.00009976,0.00002705,-0.00063842,-0.00013779,0.00008903,0.0014
 8004,-0.00082453,0.00017653,-0.00062489,0.00043138,-0.00017074,-0.0019
 5665,-0.00017531,0.00007714,0.00253556,0.00072892,-0.00023964,0.000685
 04,-0.00248307,0.00045073,-0.00026597,-0.00058946,0.00006205,0.0029491
 8,-0.00171169,0.00000521,-0.00886503,-0.00633894,0.00138290,0.04274122
 ,-0.02956225,0.00231588,-0.00001040,0.00000280,-0.00000147,-0.00000097
 ,0.00000035,-0.00000166,-0.00000135,0.00000178,0.00000113,0.00000078,-
 0.00000354,0.00000070,0.00000086,-0.00000317,0.00000239,-0.00003650,0.
 00001387,0.00000025,-0.00004327,0.00001255,-0.00001564,0.00000669,0.00
 005309,-0.00002659,-0.00008832,0.00012142,-0.00001170,-0.00005667,-0.0
 0407330,0.00042039,-0.00007591,-0.00011983,0.00002057,-0.00025541,-0.0
 0078955,0.00009112,0.00068206,0.00043169,-0.00005423,0.09296518,-0.166
 15040,0.00730978,-0.15026234,0.18387027,0.00000082,0.00000217,-0.00000
 103,0.00000222,-0.00000537,0.00000166,-0.00001451,0.00001106,-0.000005
 40,0.00007381,0.00002062,-0.00000422,-0.00016752,0.00009537,-0.0000049
 8,0.00008395,-0.00004575,0.00001056,0.00022449,0.00002083,0.00002303,-
 0.00035684,-0.00006407,0.00008561,0.00010487,0.00071204,0.00001231,0.0
 0003472,0.00008335,0.00006581,-0.00033831,0.00013407,-0.00047630,0.001
 00115,0.00090114,0.00156587,-0.00431864,0.00387097,0.00777963,0.000001
 21,-0.00000036,0.00000015,0.00000034,-0.00000014,0.00000055,-0.0000001
 6,0.00000001,-0.00000013,0.00000032,0.00000121,0.00000009,-0.00000035,
 -0.00000025,0.00000040,0.00000345,-0.00000141,0.00000048,0.00000570,-0
 .00000131,0.00000242,-0.00000096,-0.00000986,-0.00000161,0.00000801,-0
 .00001250,0.00001179,-0.00012055,0.00056305,-0.00000339,-0.00000065,0.
 00001676,-0.00001532,0.00001358,0.00005379,-0.00022993,-0.00007434,-0.
 00003559,0.00024923,-0.00450755,0.00644862,-0.06711323,0.00562761,-0.0
 0536746,0.07919606,-0.00000333,-0.00000840,0.00000339,-0.00000598,0.00
 001928,-0.00000684,0.00005109,-0.00004407,0.00001339,-0.00024682,-0.00
 006575,0.00003493,0.00051977,-0.00018158,0.00005803,-0.00030485,0.0000
 7423,-0.00006380,-0.00045339,-0.00016053,-0.00000970,0.00052839,-0.000
 41390,-0.00106260,0.00155676,-0.00090111,0.00041446,0.00000282,-0.0004
 6581,0.00021783,0.00006558,-0.00076227,-0.00078154,-0.00468948,-0.0009
 1492,0.00078097,-0.00268278,-0.00951324,0.02005876,-0.00000480,0.00000
 067,-0.00000045,-0.00000029,0.00000068,-0.00000068,0.00000012,0.000000
 56,-0.00000013,-0.00000010,-0.00000269,-0.00000006,0.00000020,-0.00000
 131,0.00000103,-0.00001249,0.00000519,-0.00000150,-0.00001519,0.000006
 31,-0.00000608,0.00000128,0.00002308,-0.00000822,-0.00006297,0.0000289
 5,0.00000573,0.00051480,0.00030125,0.00052837,0.00001977,-0.00002044,0
 .00010765,0.00000552,-0.00022517,-0.00000568,0.00022430,0.00346140,-0.
 00174956,-0.11491846,-0.02884144,0.08122635,-0.05619501,0.01473483,0.0
 4919528,0.15938058,-0.00000658,-0.00001703,0.00000635,-0.00001368,0.00
 003832,-0.00001438,0.00010114,-0.00008695,0.00002405,-0.00052298,-0.00
 010811,0.00006232,0.00116824,-0.00063346,0.00018793,-0.00048343,0.0003
 1318,-0.00013757,-0.00133503,-0.00041656,-0.00006618,0.00037770,-0.001
 02319,-0.00162500,0.00342092,-0.00324421,0.00167982,-0.00102309,-0.000
 54857,0.00040150,-0.00011430,0.00019903,-0.00078896,-0.00257910,0.0008
 4510,-0.00035903,-0.02308113,-0.00713555,0.03354693,-0.00000908,0.0000
 0202,-0.00000116,-0.00000084,0.00000059,-0.00000136,-0.00000057,0.0000
 0138,0.00000054,0.00000074,-0.00000363,0.00000045,0.00000068,-0.000002
 53,0.00000199,-0.00002874,0.00001134,-0.00000158,-0.00003362,0.0000111
 5,-0.00001267,0.00000750,0.00004742,-0.00002081,-0.00014376,0.00006670
 ,-0.00002343,0.00017195,0.00022607,0.00077946,-0.00006021,-0.00003971,
 0.00005149,0.00007379,-0.00010424,0.00000258,0.00258462,-0.00176500,0.
 00173630,-0.02623783,-0.09002586,0.04366557,0.02276289,0.01024674,-0.0
 2125329,0.02069978,0.07997579,0.00000541,0.00001397,-0.00000508,0.0000
 1096,-0.00003092,0.00001131,-0.00008455,0.00006843,-0.00003101,0.00043
 404,0.00010365,-0.00005014,-0.00095770,0.00045509,-0.00012526,0.000448
 16,-0.00020809,0.00012143,0.00103751,0.00046755,0.00002571,-0.00002051
 ,0.00025279,0.00073751,-0.00216663,0.00360058,-0.00140275,0.00032180,0
 .00029356,-0.00021182,-0.00011771,0.00049733,0.00040318,0.00315503,-0.
 00082625,0.00059373,0.01689490,0.00853909,-0.01545555,0.00000766,-0.00
 000165,0.00000087,0.00000100,-0.00000083,0.00000160,-0.00000005,-0.000
 00057,-0.00000016,-0.00000015,0.00000424,0.00000009,-0.00000059,0.0000
 0124,-0.00000086,0.00002217,-0.00000888,0.00000262,0.00002858,-0.00000
 977,0.00001144,-0.00000508,-0.00003992,0.00001342,0.00015676,-0.000052
 24,0.00002109,-0.00054103,-0.00019812,-0.00032303,0.00000611,0.0000581
 1,-0.00004482,-0.00005459,0.00014724,-0.00004135,-0.00221841,0.0005892
 7,-0.00016546,0.07987567,0.05058682,-0.19842955,0.03988919,-0.01417620
 ,-0.01140907,-0.13710487,-0.04170784,0.31333230,-0.00000393,-0.0000102
 1,0.00000333,-0.00000692,0.00002142,-0.00000929,0.00005678,-0.00004839
 ,0.00001422,-0.00028217,-0.00007738,0.00004293,0.00059600,-0.00021364,
 0.00006301,-0.00034254,0.00008370,-0.00004605,-0.00053395,-0.00023636,
 0.00008511,0.00062533,-0.00009150,0.00113351,0.00157370,-0.00131972,-0
 .00043211,-0.00000121,-0.00051157,-0.00008459,0.00014396,-0.00064855,0
 .00095081,-0.00495868,-0.00088982,-0.00006388,-0.00572191,-0.01466627,
 -0.01754234,-0.00000552,0.00000076,-0.00000060,-0.00000005,0.00000064,
 -0.00000022,-0.00000014,0.00000104,-0.00000014,0.00000058,-0.00000229,
 0.00000009,-0.00000005,-0.00000195,0.00000194,-0.00001450,0.00000680,-
 0.00000215,-0.00001703,0.00000684,-0.00000546,0.00000178,0.00002638,-0
 .00001344,-0.00008623,0.00002598,-0.00004170,0.00051169,0.00017557,-0.
 00066603,0.00001153,-0.00005297,-0.00010274,0.00001076,-0.00022744,0.0
 0006508,0.00046598,0.00359929,0.00072061,-0.12908368,-0.05386417,-0.07
 702279,-0.06462297,0.00430052,-0.04648115,0.01672494,0.00430400,0.0009
 7690,0.18495844,-0.00000826,-0.00002057,0.00000756,-0.00001503,0.00004
 431,-0.00001898,0.00011798,-0.00010043,0.00002371,-0.00060758,-0.00012
 909,0.00008760,0.00136214,-0.00071818,0.00017232,-0.00056760,0.0003400
 1,-0.00013269,-0.00148248,-0.00056493,0.00028341,0.00052210,-0.0005592
 5,0.00190655,0.00351803,-0.00434242,-0.00142058,-0.00107115,-0.0006570
 9,-0.00016450,-0.00002568,0.00021848,0.00080416,-0.00317962,0.00124017
 ,0.00049490,-0.02943961,-0.01675802,-0.03025141,-0.00001069,0.00000225
 ,-0.00000136,-0.00000050,0.00000068,-0.00000116,-0.00000091,0.00000190
 ,0.00000061,0.00000051,-0.00000395,0.00000046,0.00000057,-0.00000349,0
 .00000301,-0.00003352,0.00001360,-0.00000202,-0.00003888,0.00001355,-0
 .00001405,0.00000747,0.00005513,-0.00002546,-0.00020611,0.00008399,-0.
 00002968,0.00022660,0.00005967,-0.00089142,-0.00006196,-0.00006845,-0.
 00004283,0.00008289,-0.00013344,0.00002026,0.00273714,-0.00215420,-0.0
 0145531,-0.05024149,-0.11618744,-0.05815169,0.01493993,0.01712297,0.01
 386232,0.00316641,0.01316978,-0.00841770,0.06030930,0.11003445,-0.0000
 0404,-0.00001000,0.00000300,-0.00000593,0.00002029,-0.00000844,0.00005
 416,-0.00004520,0.00000923,-0.00028547,-0.00007271,0.00005066,0.000626
 85,-0.00027379,0.00004873,-0.00029442,0.00011729,-0.00005154,-0.000644
 07,-0.00034868,0.00013581,-0.00009108,0.00009644,0.00024493,0.00106970
 ,-0.00278724,-0.00042377,-0.00008299,-0.00013813,-0.00005717,0.0001364
 9,-0.00043413,0.00022540,-0.00195187,0.00092370,0.00057326,-0.01118786
 ,-0.00666211,-0.00267307,-0.00000518,0.00000091,-0.00000067,0.00000016
 ,0.00000037,0.00000021,-0.00000050,0.00000113,-0.00000003,-0.00000026,
 -0.00000160,-0.00000006,-0.00000005,-0.00000213,0.00000255,-0.00001604
 ,0.00000719,-0.00000113,-0.00001687,0.00000653,-0.00000516,0.00000275,
 0.00002578,-0.00001477,-0.00012267,0.00003872,-0.00000717,0.00042922,0
 .00008316,-0.00014805,0.00000427,-0.00005007,-0.00000935,0.00003112,-0
 .00010505,-0.00001234,0.00141467,-0.00047806,-0.00010367,-0.07619536,-
 0.06477607,-0.15615250,-0.03947742,0.00764354,-0.00974105,-0.01184446,
 -0.01613404,-0.08758037,0.13845715,0.08335397,0.25569651\\0.00000090,-
 0.00000527,0.00000307,0.00000104,-0.00000479,0.00000083,-0.00000021,-0
 .00000223,0.00000164,-0.00000019,-0.00000252,0.00000004,0.00000499,-0.
 00000259,0.00000136,-0.00000209,-0.00000021,0.00000158,-0.00000163,0.0
 0000240,-0.00000148,0.00000036,0.00000233,-0.00000285,0.00000033,0.000
 00265,0.00000063,0.00000129,0.00000213,-0.00000345,0.00000032,0.000003
 57,-0.00000377,-0.00000041,0.00000497,-0.00000239,-0.00000135,0.000002
 57,-0.00000047,0.00000156,-0.00000618,0.00000206,-0.00000025,-0.000003
 84,0.00000307,0.00000010,-0.00000633,0.00000381,0.00000196,-0.00000301
 ,-0.00000030,0.00000248,-0.00000559,0.00000078,-0.00000035,-0.00000408
 ,0.00000283,-0.00000091,-0.00000186,0.00000206,0.00000167,-0.00000226,
 -0.00000103,0.00000260,-0.00000021,-0.00000316,-0.00000205,0.00000152,
 0.00000122,0.00000235,0.00000202,-0.00000490,0.00000151,0.00000442,-0.
 00000550,-0.00000094,0.00000599,-0.00000297,-0.00000227,0.00000375,-0.
 00000011,-0.00000356,0.00000303,0.00000332,-0.00000434,0.00000603,0.00
 000261,-0.00000293,0.00000360,0.00000147\\\@


 ... IT CAN BE VERY DIFFICULT, IN THESE COMPLEX TIMES,
 TO UNDERSTAND JUST HOW SCIENTISTS DO WHAT THEY DO.

                     DON MOSER IN THE FEBRUARY 1979 SMITHSONIAN
 Job cpu time:       0 days  2 hours 56 minutes 15.8 seconds.
 File lengths (MBytes):  RWF=    558 Int=      0 D2E=      0 Chk=     24 Scr=      1
 Normal termination of Gaussian 09 at Wed Feb 27 13:56:34 2019.
WARNING: pbs_rusage is deprecated and values produced may not be accurate


=============================================================================
                                     Resource usage:
                                       CPU time:              16:20:40
   JobId:    6207894.r-man2            Elapsed time:          04:06:54
   Project:             q95            Requested time:        36:00:00
   Service Units:     16.46 
                                       Max physical memory:      734MB
                                       Max virtual memory:      1584MB
                                       Requested memory:           0MB

                                       Number of cpus:               4

                                       Max jobfs disk use:       0.5GB
                                       Requested jobfs:         16.0GB
=============================================================================

