 Entering Gaussian System, Link 0=/apps/gaussian/g09e01/g09/g09
 AtFile(1): /home/507/hio507/Basis/6-31pGd.gbs
 Initial command:
 /apps/gaussian/g09e01/g09/l1.exe "/jobfs/local/1827571.r-man2/Gau-44369.inp" -scrdir="/jobfs/local/1827571.r-man2/"
 Entering Link 1 = /apps/gaussian/g09e01/g09/l1.exe PID=     44371.
  
 Copyright (c) 1988,1990,1992,1993,1995,1998,2003,2009,2015,
            Gaussian, Inc.  All Rights Reserved.
  
 This is part of the Gaussian(R) 09 program.  It is based on
 the Gaussian(R) 03 system (copyright 2003, Gaussian, Inc.),
 the Gaussian(R) 98 system (copyright 1998, Gaussian, Inc.),
 the Gaussian(R) 94 system (copyright 1995, Gaussian, Inc.),
 the Gaussian 92(TM) system (copyright 1992, Gaussian, Inc.),
 the Gaussian 90(TM) system (copyright 1990, Gaussian, Inc.),
 the Gaussian 88(TM) system (copyright 1988, Gaussian, Inc.),
 the Gaussian 86(TM) system (copyright 1986, Carnegie Mellon
 University), and the Gaussian 82(TM) system (copyright 1983,
 Carnegie Mellon University). Gaussian is a federally registered
 trademark of Gaussian, Inc.
  
 This software contains proprietary and confidential information,
 including trade secrets, belonging to Gaussian, Inc.
  
 This software is provided under written license and may be
 used, copied, transmitted, or stored only in accord with that
 written license.
  
 The following legend is applicable only to US Government
 contracts under FAR:
  
                    RESTRICTED RIGHTS LEGEND
  
 Use, reproduction and disclosure by the US Government is
 subject to restrictions as set forth in subparagraphs (a)
 and (c) of the Commercial Computer Software - Restricted
 Rights clause in FAR 52.227-19.
  
 Gaussian, Inc.
 340 Quinnipiac St., Bldg. 40, Wallingford CT 06492
  
  
 ---------------------------------------------------------------
 Warning -- This program may not be used in any manner that
 competes with the business of Gaussian, Inc. or will provide
 assistance to any competitor of Gaussian, Inc.  The licensee
 of this program is prohibited from giving any competitor of
 Gaussian, Inc. access to this program.  By using this program,
 the user acknowledges that Gaussian, Inc. is engaged in the
 business of creating and licensing software in the field of
 computational chemistry and represents and warrants to the
 licensee that it is not a competitor of Gaussian, Inc. and that
 it will not use this program in any manner prohibited above.
 ---------------------------------------------------------------
  

 Cite this work as:
 Gaussian 09, Revision E.01,
 M. J. Frisch, G. W. Trucks, H. B. Schlegel, G. E. Scuseria, 
 M. A. Robb, J. R. Cheeseman, G. Scalmani, V. Barone, B. Mennucci, 
 G. A. Petersson, H. Nakatsuji, M. Caricato, X. Li, H. P. Hratchian, 
 A. F. Izmaylov, J. Bloino, G. Zheng, J. L. Sonnenberg, M. Hada, 
 M. Ehara, K. Toyota, R. Fukuda, J. Hasegawa, M. Ishida, T. Nakajima, 
 Y. Honda, O. Kitao, H. Nakai, T. Vreven, J. A. Montgomery, Jr., 
 J. E. Peralta, F. Ogliaro, M. Bearpark, J. J. Heyd, E. Brothers, 
 K. N. Kudin, V. N. Staroverov, T. Keith, R. Kobayashi, J. Normand, 
 K. Raghavachari, A. Rendell, J. C. Burant, S. S. Iyengar, J. Tomasi, 
 M. Cossi, N. Rega, J. M. Millam, M. Klene, J. E. Knox, J. B. Cross, 
 V. Bakken, C. Adamo, J. Jaramillo, R. Gomperts, R. E. Stratmann, 
 O. Yazyev, A. J. Austin, R. Cammi, C. Pomelli, J. W. Ochterski, 
 R. L. Martin, K. Morokuma, V. G. Zakrzewski, G. A. Voth, 
 P. Salvador, J. J. Dannenberg, S. Dapprich, A. D. Daniels, 
 O. Farkas, J. B. Foresman, J. V. Ortiz, J. Cioslowski, 
 and D. J. Fox, Gaussian, Inc., Wallingford CT, 2013.
 
 ******************************************
 Gaussian 09:  ES64L-G09RevE.01 30-Nov-2015
                30-Oct-2018 
 ******************************************
 %chk=3TMF4Nitro.M062X_6-31pGd_opt.chk
 %mem=196608000
 %nproc=4
 Will use up to    4 processors via shared memory.
 ----------------------------------------------------------------------
 # M062X/Gen 6D SCF=Tight INT(grid=ultrafine) OPT IOP(2/17=4) maxdisk=2
 684354560
 ----------------------------------------------------------------------
 1/14=-1,18=20,19=15,26=4,38=1/1,3;
 2/9=110,12=2,17=4,18=5,40=1/2;
 3/5=7,8=2,11=2,16=1,25=1,30=1,71=1,74=-55,75=-5/1,2,3;
 4//1;
 5/5=2,32=2,38=5/2;
 6/7=2,8=2,9=2,10=2,28=1/1;
 7//1,2,3,16;
 1/14=-1,18=20,19=15,26=4/3(2);
 2/9=110,17=4/2;
 99//99;
 2/9=110,17=4/2;
 3/5=7,6=1,8=2,11=2,16=1,25=1,30=1,71=1,74=-55,75=-5,82=7/1,2,3;
 4/5=5,16=3,69=1/1;
 5/5=2,32=2,38=5/2;
 7//1,2,3,16;
 1/14=-1,18=20,19=15,26=4/3(-5);
 2/9=110,17=4/2;
 6/7=2,8=2,9=2,10=2,19=2,28=1/1;
 99/9=1/99;
 ----------------------------
 3TMF4Nitro.M062X_6-31pGd_opt
 ----------------------------
 Symbolic Z-matrix:
 Charge =  0 Multiplicity = 1
 C                    -2.03683   1.83126  -0.08111 
 C                    -0.67396   1.14733  -0.03117 
 C                     0.4666    2.17222  -0.04985 
 N                     1.75849   1.50968  -0.00004 
 C                     2.93005   2.20709  -0.00445 
 O                     2.89806   3.42626  -0.05236 
 N                     4.11671   1.52508   0.04624 
 C                     5.4559    2.05651   0.05278 
 C                     5.77938   3.43207  -0.00221 
 C                     6.51162   1.13946   0.11845 
 C                     7.83206   1.56439   0.13018 
 C                     8.17724   2.92102   0.07703 
 C                     7.1222    3.88695   0.00839 
 H                    -2.83858   1.06303  -0.0661 
 H                    -2.13494   2.42959  -1.01184 
 H                    -2.16677   2.49794   0.79787 
 H                    -0.57802   0.47079  -0.90831 
 H                    -0.61017   0.5395    0.89768 
 H                     0.36664   2.8471    0.82886 
 H                     0.40011   2.77737  -0.98095 
 H                     1.78953   0.47869   0.04068 
 H                     4.04375   0.49628   0.08649 
 H                     5.00713   4.17161  -0.05422 
 H                     6.31593   0.07581   0.1621 
 C                     7.38258   5.38625  -0.05389 
 F                     6.2127    6.1246   -0.11532 
 F                     8.1205    5.68823  -1.18448 
 F                     8.06697   5.79159   1.07803 
 N                     9.5774    3.24382   0.09552 
 O                     10.38738   2.36721   0.15457 
 O                     9.96235   4.37113   0.05384 
 H                     8.58371   0.85897   0.1796 
 

 GradGradGradGradGradGradGradGradGradGradGradGradGradGradGradGradGradGrad
 Berny optimization.
 Initialization pass.
                           ----------------------------
                           !    Initial Parameters    !
                           ! (Angstroms and Degrees)  !
 --------------------------                            --------------------------
 ! Name  Definition              Value          Derivative Info.                !
 --------------------------------------------------------------------------------
 ! R1    R(1,2)                  1.5257         estimate D2E/DX2                !
 ! R2    R(1,14)                 1.1105         estimate D2E/DX2                !
 ! R3    R(1,15)                 1.1108         estimate D2E/DX2                !
 ! R4    R(1,16)                 1.1108         estimate D2E/DX2                !
 ! R5    R(2,3)                  1.5335         estimate D2E/DX2                !
 ! R6    R(2,17)                 1.1119         estimate D2E/DX2                !
 ! R7    R(2,18)                 1.1119         estimate D2E/DX2                !
 ! R8    R(3,4)                  1.4527         estimate D2E/DX2                !
 ! R9    R(3,19)                 1.1125         estimate D2E/DX2                !
 ! R10   R(3,20)                 1.1125         estimate D2E/DX2                !
 ! R11   R(4,5)                  1.3634         estimate D2E/DX2                !
 ! R12   R(4,21)                 1.0323         estimate D2E/DX2                !
 ! R13   R(5,6)                  1.2205         estimate D2E/DX2                !
 ! R14   R(5,7)                  1.3696         estimate D2E/DX2                !
 ! R15   R(7,8)                  1.4408         estimate D2E/DX2                !
 ! R16   R(7,22)                 1.0322         estimate D2E/DX2                !
 ! R17   R(8,9)                  1.4142         estimate D2E/DX2                !
 ! R18   R(8,10)                 1.3999         estimate D2E/DX2                !
 ! R19   R(9,13)                 1.4178         estimate D2E/DX2                !
 ! R20   R(9,23)                 1.0705         estimate D2E/DX2                !
 ! R21   R(10,11)                1.3872         estimate D2E/DX2                !
 ! R22   R(10,24)                1.0824         estimate D2E/DX2                !
 ! R23   R(11,12)                1.4009         estimate D2E/DX2                !
 ! R24   R(11,32)                1.032          estimate D2E/DX2                !
 ! R25   R(12,13)                1.4321         estimate D2E/DX2                !
 ! R26   R(12,29)                1.437          estimate D2E/DX2                !
 ! R27   R(13,25)                1.523          estimate D2E/DX2                !
 ! R28   R(25,26)                1.3848         estimate D2E/DX2                !
 ! R29   R(25,27)                1.3835         estimate D2E/DX2                !
 ! R30   R(25,28)                1.3834         estimate D2E/DX2                !
 ! R31   R(29,30)                1.195          estimate D2E/DX2                !
 ! R32   R(29,31)                1.192          estimate D2E/DX2                !
 ! A1    A(2,1,14)             109.5345         estimate D2E/DX2                !
 ! A2    A(2,1,15)             110.3523         estimate D2E/DX2                !
 ! A3    A(2,1,16)             110.3426         estimate D2E/DX2                !
 ! A4    A(14,1,15)            108.6743         estimate D2E/DX2                !
 ! A5    A(14,1,16)            108.6652         estimate D2E/DX2                !
 ! A6    A(15,1,16)            109.2322         estimate D2E/DX2                !
 ! A7    A(1,2,3)              111.3705         estimate D2E/DX2                !
 ! A8    A(1,2,17)             108.9062         estimate D2E/DX2                !
 ! A9    A(1,2,18)             108.8841         estimate D2E/DX2                !
 ! A10   A(3,2,17)             109.4431         estimate D2E/DX2                !
 ! A11   A(3,2,18)             109.4425         estimate D2E/DX2                !
 ! A12   A(17,2,18)            108.7499         estimate D2E/DX2                !
 ! A13   A(2,3,4)              110.8667         estimate D2E/DX2                !
 ! A14   A(2,3,19)             109.2077         estimate D2E/DX2                !
 ! A15   A(2,3,20)             109.2261         estimate D2E/DX2                !
 ! A16   A(4,3,19)             109.2382         estimate D2E/DX2                !
 ! A17   A(4,3,20)             109.2649         estimate D2E/DX2                !
 ! A18   A(19,3,20)            109.0098         estimate D2E/DX2                !
 ! A19   A(3,4,5)              122.0558         estimate D2E/DX2                !
 ! A20   A(3,4,21)             118.9206         estimate D2E/DX2                !
 ! A21   A(5,4,21)             119.0236         estimate D2E/DX2                !
 ! A22   A(4,5,6)              119.245          estimate D2E/DX2                !
 ! A23   A(4,5,7)              119.318          estimate D2E/DX2                !
 ! A24   A(6,5,7)              121.437          estimate D2E/DX2                !
 ! A25   A(5,7,8)              128.4487         estimate D2E/DX2                !
 ! A26   A(5,7,22)             115.8826         estimate D2E/DX2                !
 ! A27   A(8,7,22)             115.6686         estimate D2E/DX2                !
 ! A28   A(7,8,9)              124.8351         estimate D2E/DX2                !
 ! A29   A(7,8,10)             117.357          estimate D2E/DX2                !
 ! A30   A(9,8,10)             117.808          estimate D2E/DX2                !
 ! A31   A(8,9,13)             121.8995         estimate D2E/DX2                !
 ! A32   A(8,9,23)             120.5874         estimate D2E/DX2                !
 ! A33   A(13,9,23)            117.5131         estimate D2E/DX2                !
 ! A34   A(8,10,11)            121.1693         estimate D2E/DX2                !
 ! A35   A(8,10,24)            120.6157         estimate D2E/DX2                !
 ! A36   A(11,10,24)           118.215          estimate D2E/DX2                !
 ! A37   A(10,11,12)           122.0652         estimate D2E/DX2                !
 ! A38   A(10,11,32)           118.9676         estimate D2E/DX2                !
 ! A39   A(12,11,32)           118.9672         estimate D2E/DX2                !
 ! A40   A(11,12,13)           118.2608         estimate D2E/DX2                !
 ! A41   A(11,12,29)           117.2027         estimate D2E/DX2                !
 ! A42   A(13,12,29)           124.5366         estimate D2E/DX2                !
 ! A43   A(9,13,12)            118.7972         estimate D2E/DX2                !
 ! A44   A(9,13,25)            118.5191         estimate D2E/DX2                !
 ! A45   A(12,13,25)           122.6837         estimate D2E/DX2                !
 ! A46   A(13,25,26)           112.4747         estimate D2E/DX2                !
 ! A47   A(13,25,27)           109.8457         estimate D2E/DX2                !
 ! A48   A(13,25,28)           109.8493         estimate D2E/DX2                !
 ! A49   A(26,25,27)           107.3364         estimate D2E/DX2                !
 ! A50   A(26,25,28)           107.338          estimate D2E/DX2                !
 ! A51   A(27,25,28)           109.9268         estimate D2E/DX2                !
 ! A52   A(12,29,30)           119.7545         estimate D2E/DX2                !
 ! A53   A(12,29,31)           121.7812         estimate D2E/DX2                !
 ! A54   A(30,29,31)           118.4643         estimate D2E/DX2                !
 ! D1    D(14,1,2,3)          -179.9962         estimate D2E/DX2                !
 ! D2    D(14,1,2,17)           59.2167         estimate D2E/DX2                !
 ! D3    D(14,1,2,18)          -59.2243         estimate D2E/DX2                !
 ! D4    D(15,1,2,3)            60.4015         estimate D2E/DX2                !
 ! D5    D(15,1,2,17)          -60.3856         estimate D2E/DX2                !
 ! D6    D(15,1,2,18)         -178.8266         estimate D2E/DX2                !
 ! D7    D(16,1,2,3)           -60.4111         estimate D2E/DX2                !
 ! D8    D(16,1,2,17)          178.8017         estimate D2E/DX2                !
 ! D9    D(16,1,2,18)           60.3607         estimate D2E/DX2                !
 ! D10   D(1,2,3,4)            179.9185         estimate D2E/DX2                !
 ! D11   D(1,2,3,19)            59.5065         estimate D2E/DX2                !
 ! D12   D(1,2,3,20)           -59.6244         estimate D2E/DX2                !
 ! D13   D(17,2,3,4)           -59.6097         estimate D2E/DX2                !
 ! D14   D(17,2,3,19)          179.9783         estimate D2E/DX2                !
 ! D15   D(17,2,3,20)           60.8474         estimate D2E/DX2                !
 ! D16   D(18,2,3,4)            59.4747         estimate D2E/DX2                !
 ! D17   D(18,2,3,19)          -60.9374         estimate D2E/DX2                !
 ! D18   D(18,2,3,20)          179.9318         estimate D2E/DX2                !
 ! D19   D(2,3,4,5)           -179.953          estimate D2E/DX2                !
 ! D20   D(2,3,4,21)            -0.001          estimate D2E/DX2                !
 ! D21   D(19,3,4,5)           -59.5591         estimate D2E/DX2                !
 ! D22   D(19,3,4,21)          120.3929         estimate D2E/DX2                !
 ! D23   D(20,3,4,5)            59.6129         estimate D2E/DX2                !
 ! D24   D(20,3,4,21)         -120.4351         estimate D2E/DX2                !
 ! D25   D(3,4,5,6)             -0.0399         estimate D2E/DX2                !
 ! D26   D(3,4,5,7)            179.8978         estimate D2E/DX2                !
 ! D27   D(21,4,5,6)          -179.9919         estimate D2E/DX2                !
 ! D28   D(21,4,5,7)            -0.0542         estimate D2E/DX2                !
 ! D29   D(4,5,7,8)           -179.9481         estimate D2E/DX2                !
 ! D30   D(4,5,7,22)            -0.0512         estimate D2E/DX2                !
 ! D31   D(6,5,7,8)             -0.0118         estimate D2E/DX2                !
 ! D32   D(6,5,7,22)           179.8851         estimate D2E/DX2                !
 ! D33   D(5,7,8,9)             -0.3947         estimate D2E/DX2                !
 ! D34   D(5,7,8,10)           179.6091         estimate D2E/DX2                !
 ! D35   D(22,7,8,9)           179.7082         estimate D2E/DX2                !
 ! D36   D(22,7,8,10)           -0.288          estimate D2E/DX2                !
 ! D37   D(7,8,9,13)           179.976          estimate D2E/DX2                !
 ! D38   D(7,8,9,23)            -0.0494         estimate D2E/DX2                !
 ! D39   D(10,8,9,13)           -0.0278         estimate D2E/DX2                !
 ! D40   D(10,8,9,23)          179.9468         estimate D2E/DX2                !
 ! D41   D(7,8,10,11)         -179.9617         estimate D2E/DX2                !
 ! D42   D(7,8,10,24)            0.0034         estimate D2E/DX2                !
 ! D43   D(9,8,10,11)            0.0419         estimate D2E/DX2                !
 ! D44   D(9,8,10,24)         -179.993          estimate D2E/DX2                !
 ! D45   D(8,9,13,12)           -0.0074         estimate D2E/DX2                !
 ! D46   D(8,9,13,25)          179.9916         estimate D2E/DX2                !
 ! D47   D(23,9,13,12)        -179.9828         estimate D2E/DX2                !
 ! D48   D(23,9,13,25)           0.0162         estimate D2E/DX2                !
 ! D49   D(8,10,11,12)          -0.0206         estimate D2E/DX2                !
 ! D50   D(8,10,11,32)         179.9802         estimate D2E/DX2                !
 ! D51   D(24,10,11,12)       -179.9866         estimate D2E/DX2                !
 ! D52   D(24,10,11,32)          0.0143         estimate D2E/DX2                !
 ! D53   D(10,11,12,13)         -0.0158         estimate D2E/DX2                !
 ! D54   D(10,11,12,29)        179.9873         estimate D2E/DX2                !
 ! D55   D(32,11,12,13)        179.9834         estimate D2E/DX2                !
 ! D56   D(32,11,12,29)         -0.0135         estimate D2E/DX2                !
 ! D57   D(11,12,13,9)           0.029          estimate D2E/DX2                !
 ! D58   D(11,12,13,25)       -179.9699         estimate D2E/DX2                !
 ! D59   D(29,12,13,9)        -179.9743         estimate D2E/DX2                !
 ! D60   D(29,12,13,25)          0.0268         estimate D2E/DX2                !
 ! D61   D(11,12,29,30)         -0.0167         estimate D2E/DX2                !
 ! D62   D(11,12,29,31)       -179.9905         estimate D2E/DX2                !
 ! D63   D(13,12,29,30)        179.9866         estimate D2E/DX2                !
 ! D64   D(13,12,29,31)          0.0127         estimate D2E/DX2                !
 ! D65   D(9,13,25,26)          -0.0207         estimate D2E/DX2                !
 ! D66   D(9,13,25,27)        -119.5026         estimate D2E/DX2                !
 ! D67   D(9,13,25,28)         119.4655         estimate D2E/DX2                !
 ! D68   D(12,13,25,26)        179.9782         estimate D2E/DX2                !
 ! D69   D(12,13,25,27)         60.4964         estimate D2E/DX2                !
 ! D70   D(12,13,25,28)        -60.5356         estimate D2E/DX2                !
 --------------------------------------------------------------------------------
 Trust Radius=3.00D-01 FncErr=1.00D-07 GrdErr=1.00D-06
 Number of steps in this run=    166 maximum allowed number of steps=    192.
 GradGradGradGradGradGradGradGradGradGradGradGradGradGradGradGradGradGrad

                          Input orientation:                          
 ---------------------------------------------------------------------
 Center     Atomic      Atomic             Coordinates (Angstroms)
 Number     Number       Type             X           Y           Z
 ---------------------------------------------------------------------
      1          6           0       -2.036830    1.831260   -0.081110
      2          6           0       -0.673960    1.147330   -0.031170
      3          6           0        0.466600    2.172220   -0.049850
      4          7           0        1.758490    1.509680   -0.000040
      5          6           0        2.930050    2.207090   -0.004450
      6          8           0        2.898060    3.426260   -0.052360
      7          7           0        4.116710    1.525080    0.046240
      8          6           0        5.455900    2.056510    0.052780
      9          6           0        5.779380    3.432070   -0.002210
     10          6           0        6.511620    1.139460    0.118450
     11          6           0        7.832060    1.564390    0.130180
     12          6           0        8.177240    2.921020    0.077030
     13          6           0        7.122200    3.886950    0.008390
     14          1           0       -2.838580    1.063030   -0.066100
     15          1           0       -2.134940    2.429590   -1.011840
     16          1           0       -2.166770    2.497940    0.797870
     17          1           0       -0.578020    0.470790   -0.908310
     18          1           0       -0.610170    0.539500    0.897680
     19          1           0        0.366640    2.847100    0.828860
     20          1           0        0.400110    2.777370   -0.980950
     21          1           0        1.789530    0.478690    0.040680
     22          1           0        4.043750    0.496280    0.086490
     23          1           0        5.007130    4.171610   -0.054220
     24          1           0        6.315930    0.075810    0.162100
     25          6           0        7.382580    5.386250   -0.053890
     26          9           0        6.212700    6.124600   -0.115320
     27          9           0        8.120500    5.688230   -1.184480
     28          9           0        8.066970    5.791590    1.078030
     29          7           0        9.577400    3.243820    0.095520
     30          8           0       10.387380    2.367210    0.154570
     31          8           0        9.962350    4.371130    0.053840
     32          1           0        8.583710    0.858970    0.179600
 ---------------------------------------------------------------------
                    Distance matrix (angstroms):
                    1          2          3          4          5
     1  C    0.000000
     2  C    1.525670   0.000000
     3  C    2.526736   1.533501   0.000000
     4  N    3.809782   2.459488   1.452728   0.000000
     5  C    4.981669   3.756686   2.464115   1.363434   0.000000
     6  O    5.186327   4.237133   2.735803   2.230389   1.220530
     7  N    6.162469   4.806163   3.708278   2.358724   1.369624
     8  C    7.497311   6.197487   4.991697   3.738001   2.530982
     9  C    7.978844   6.845909   5.460323   4.456809   3.101494
    10  C    8.578718   7.187142   6.134915   4.768999   3.739329
    11  C    9.874758   8.517767   7.392690   6.075212   4.945795
    12  C   10.273257   9.027814   7.747953   6.572532   5.296163
    13  C    9.387316   8.263607   6.873187   5.866930   4.516217
    14  H    1.110498   2.166542   3.486371   4.619190   5.881306
    15  H    1.110803   2.177238   2.785619   4.126593   5.168991
    16  H    1.110834   2.177139   2.785563   4.125650   5.167774
    17  H    2.159459   1.111884   2.173258   2.713582   4.017245
    18  H    2.159174   1.111885   2.173251   2.712508   4.015950
    19  H    2.763448   2.170649   1.112469   2.100717   2.770395
    20  H    2.764690   2.170884   1.112463   2.101052   2.771167
    21  H    4.060210   2.553630   2.150903   1.032261   2.071277
    22  H    6.227657   4.763874   3.952640   2.501376   2.043396
    23  H    7.422623   6.435960   4.961249   4.200294   2.859384
    24  H    8.538698   7.074183   6.217276   4.780432   4.004282
    25  C   10.067968   9.103669   7.626322   6.830892   5.471245
    26  F    9.299929   8.497434   6.974472   6.414886   5.112237
    27  F   10.920851   9.964558   8.498935   7.703139   6.360155
    28  F   10.913963   9.960087   8.493384   7.700254   6.356756
    29  N   11.701148  10.464306   9.174755   8.009477   6.728452
    30  O   12.437997  11.129953   9.924801   8.672774   7.460744
    31  O   12.265785  11.114459   9.747575   8.688735   7.357969
    32  H   10.668139   9.264558   8.225858   6.858522   5.815082
                    6          7          8          9         10
     6  O    0.000000
     7  N    2.260379   0.000000
     8  C    2.903414   1.440795   0.000000
     9  C    2.881762   2.530500   1.414153   0.000000
    10  C    4.279772   2.426831   1.399942   2.409729   0.000000
    11  C    5.276764   3.716506   2.427820   2.778354   1.387179
    12  C    5.304880   4.293891   2.855461   2.452995   2.439254
    13  C    4.249622   3.822673   2.475689   1.417813   2.816669
    14  H    6.204360   6.971526   8.354612   8.937878   9.352333
    15  H    5.219678   6.404748   7.674207   8.041193   8.815043
    16  H    5.218924   6.402619   7.671709   8.040773   8.810308
    17  H    4.642261   4.905424   6.312400   7.071544   7.194745
    18  H    4.641512   4.903031   6.309705   7.071288   7.189370
    19  H    2.742273   4.052562   5.208445   5.507324   6.417281
    20  H    2.742826   4.054191   5.210494   5.506642   6.421992
    21  H    3.150502   2.551613   3.991482   4.964191   4.768731
    22  H    3.149074   1.032169   2.104667   3.411619   2.550507
    23  H    2.236901   2.794112   2.164831   1.070511   3.389283
    24  H    4.790965   2.636357   2.162123   3.402847   1.082382
    25  C    4.894127   5.058119   3.848460   2.528189   4.338606
    26  F    4.274557   5.057159   4.141299   2.729520   4.999562
    27  F    5.802765   5.905660   4.671220   3.459604   4.997742
    28  F    5.795705   5.905273   4.671150   3.459382   4.998222
    29  N    6.683467   5.725001   4.289323   3.803938   3.718584
    30  O    7.566659   6.327892   4.942306   4.732037   4.065734
    31  O    7.127991   6.501659   5.066119   4.287448   4.728150
    32  H    6.242708   4.518360   3.351624   3.810271   2.091882
                   11         12         13         14         15
    11  C    0.000000
    12  C    1.400864   0.000000
    13  C    2.431670   1.432076   0.000000
    14  H   10.684215  11.172328  10.353609   0.000000
    15  H   10.069452  10.381146   9.426527   1.804721   0.000000
    16  H   10.064488  10.377724   9.425370   1.804644   1.811280
    17  H    8.544230   9.144895   8.473717   2.483988   2.504319
    18  H    8.538776   9.141317   8.472650   2.483700   3.089277
    19  H    7.606970   7.847049   6.884188   3.775883   3.133751
    20  H    7.611820   7.850077   6.884508   3.776907   2.558981
    21  H    6.139945   6.838796   6.328874   4.666075   4.507247
    22  H    3.936250   4.792201   4.580349   6.907312   6.566599
    23  H    3.848614   3.410396   2.135058   8.439110   7.413557
    24  H    2.124980   3.401019   3.898524   9.210414   8.850741
    25  C    3.852600   2.593450   1.523016  11.097860  10.012127
    26  F    4.845422   3.762890   2.418589  10.370515   9.172783
    27  F    4.337924   3.041723   2.379948  11.947581  10.762090
    28  F    4.338528   3.042093   2.379994  11.941496  10.943015
    29  N    2.422374   1.437007   2.539530  12.607082  11.792715
    30  O    2.678577   2.279789   3.604494  13.291937  12.576681
    31  O    3.524451   2.299994   2.881484  13.222016  12.298361
    32  H    1.032007   2.104231   3.366599  11.426754  10.898433
                   16         17         18         19         20
    16  H    0.000000
    17  H    3.089420   0.000000
    18  H    2.503688   1.807583   0.000000
    19  H    2.557546   3.091438   2.506773   0.000000
    20  H    3.135467   2.506457   3.091598   1.811462   0.000000
    21  H    4.505887   2.550674   2.548864   2.873188   2.873699
    22  H    6.563784   4.727688   4.724285   4.427031   4.429324
    23  H    7.415664   6.754216   6.756656   4.905946   4.901772
    24  H    8.844609   6.987727   6.980469   6.596868   6.603175
    25  C   10.012887   9.394835   9.395772   7.513318   7.511364
    26  F    9.176170   8.871769   8.875307   6.768301   6.763096
    27  F   10.951511  10.147029  10.347435   8.499877   8.253421
    28  F   10.754350  10.343709  10.144444   8.247860   8.491505
    29  N   11.788773  10.574967  10.570875   9.248420   9.251974
    30  O   12.571301  11.178825  11.173130  10.054859  10.059980
    31  O   12.295445  11.279973  11.277040   9.746844   9.749220
    32  H   10.892259   9.234258   9.227412   8.479059   8.485190
                   21         22         23         24         25
    21  H    0.000000
    22  H    2.254754   0.000000
    23  H    4.898940   3.802098   0.000000
    24  H    4.545916   2.311993   4.305268   0.000000
    25  C    7.441458   5.922778   2.667979   5.420809   0.000000
    26  F    7.173916   6.035152   2.295932   6.056028   1.384758
    27  F    8.289843   6.722470   3.642897   6.047232   1.383456
    28  F    8.289105   6.723820   3.642656   6.047744   1.383450
    29  N    8.264374   6.178215   4.665896   4.547297   3.070760
    30  O    8.803551   6.614125   5.678604   4.671967   4.264608
    31  O    9.052417   7.074274   4.960412   5.635412   2.774399
    32  H    6.806232   4.555376   4.880592   2.399265   4.689722
                   26         27         28         29         30
    26  F    0.000000
    27  F    2.230072   0.000000
    28  F    2.230089   2.265502   0.000000
    29  N    4.434473   3.120272   3.120554   0.000000
    30  O    5.623057   4.238039   4.238332   1.194989   0.000000
    31  O    4.142843   2.580814   2.580530   1.191953   2.050974
    32  H    5.782346   5.039547   5.040331   2.584956   2.351306
                   31         32
    31  O    0.000000
    32  H    3.775147   0.000000
 Stoichiometry    C11H12F3N3O3
 Framework group  C1[X(C11H12F3N3O3)]
 Deg. of freedom    90
 Full point group                 C1      NOp   1
 Largest Abelian subgroup         C1      NOp   1
 Largest concise Abelian subgroup C1      NOp   1
                         Standard orientation:                         
 ---------------------------------------------------------------------
 Center     Atomic      Atomic             Coordinates (Angstroms)
 Number     Number       Type             X           Y           Z
 ---------------------------------------------------------------------
      1          6           0       -7.502868    0.678758    0.008440
      2          6           0       -6.364170   -0.336597   -0.001087
      3          6           0       -4.996666    0.357338    0.002474
      4          7           0       -3.920950   -0.618983   -0.004730
      5          6           0       -2.608490   -0.249666   -0.002315
      6          8           0       -2.322973    0.936974    0.005412
      7          7           0       -1.639437   -1.217540   -0.007309
      8          6           0       -0.208150   -1.052305   -0.004951
      9          6           0        0.461191    0.193413   -0.004713
     10          6           0        0.573517   -2.213696   -0.002820
     11          6           0        1.959068   -2.146585    0.000319
     12          6           0        2.644459   -0.924841    0.001087
     13          6           0        1.876125    0.283669   -0.001823
     14          1           0       -8.476549    0.144771    0.005661
     15          1           0       -7.450100    1.326881   -0.892135
     16          1           0       -7.447557    1.312491    0.919086
     17          1           0       -6.454858   -0.971119   -0.909626
     18          1           0       -6.452563   -0.984897    0.897902
     19          1           0       -4.910278    0.991224    0.912591
     20          1           0       -4.911596    1.003863   -0.898827
     21          1           0       -4.158545   -1.623508   -0.011143
     22          1           0       -1.976889   -2.192977   -0.011910
     23          1           0       -0.092767    1.109448   -0.007144
     24          1           0        0.108528   -3.191109   -0.003019
     25          6           0        2.516628    1.665455   -0.001969
     26          9           0        1.578327    2.683851   -0.005517
     27          9           0        3.297949    1.820840   -1.133050
     28          9           0        3.292518    1.823683    1.132443
     29          7           0        4.080506   -0.977234    0.004705
     30          8           0        4.635336   -2.035609    0.007203
     31          8           0        4.744805    0.012441    0.005766
     32          1           0        2.501978   -3.024242    0.002133
 ---------------------------------------------------------------------
 Rotational constants (GHZ):      0.7739529      0.1288822      0.1131410
 General basis read from cards:  (6D, 7F)
 There are   404 symmetry adapted cartesian basis functions of A   symmetry.
 There are   404 symmetry adapted basis functions of A   symmetry.
   404 basis functions,   688 primitive gaussians,   404 cartesian basis functions
    75 alpha electrons       75 beta electrons
       nuclear repulsion energy      1571.7560936551 Hartrees.
 NAtoms=   32 NActive=   32 NUniq=   32 SFac= 1.00D+00 NAtFMM=   60 NAOKFM=F Big=F
 Integral buffers will be    131072 words long.
 Raffenetti 2 integral format.
 Two-electron integral symmetry is turned on.
 One-electron integrals computed using PRISM.
 NBasis=   404 RedAO= T EigKep=  1.59D-06  NBF=   404
 NBsUse=   403 1.00D-06 EigRej=  2.90D-07 NBFU=   403
 ExpMin= 4.38D-02 ExpMax= 7.00D+03 ExpMxC= 1.05D+03 IAcc=3 IRadAn=         5 AccDes= 0.00D+00
 Harris functional with IExCor= 1009 and IRadAn=       5 diagonalized for initial guess.
 HarFok:  IExCor= 1009 AccDes= 0.00D+00 IRadAn=         5 IDoV= 1 UseB2=F ITyADJ=14
 ICtDFT=  3500011 ScaDFX=  1.000000  1.000000  1.000000  1.000000
 FoFCou: FMM=F IPFlag=           0 FMFlag=      100000 FMFlg1=           0
         NFxFlg=           0 DoJE=T BraDBF=F KetDBF=T FulRan=T
         wScrn=  0.000000 ICntrl=     500 IOpCl=  0 I1Cent=   200000004 NGrid=           0
         NMat0=    1 NMatS0=      1 NMatT0=    0 NMatD0=    1 NMtDS0=    0 NMtDT0=    0
 Petite list used in FoFCou.
 Requested convergence on RMS density matrix=1.00D-08 within 128 cycles.
 Requested convergence on MAX density matrix=1.00D-06.
 Requested convergence on             energy=1.00D-06.
 No special actions if energy rises.
 SCF Done:  E(RM062X) =  -1115.36561729     A.U. after   16 cycles
            NFock= 16  Conv=0.54D-08     -V/T= 2.0084

 **********************************************************************

            Population analysis using the SCF density.

 **********************************************************************

 Orbital symmetries:
       Occupied  (A) (A) (A) (A) (A) (A) (A) (A) (A) (A) (A) (A)
                 (A) (A) (A) (A) (A) (A) (A) (A) (A) (A) (A) (A)
                 (A) (A) (A) (A) (A) (A) (A) (A) (A) (A) (A) (A)
                 (A) (A) (A) (A) (A) (A) (A) (A) (A) (A) (A) (A)
                 (A) (A) (A) (A) (A) (A) (A) (A) (A) (A) (A) (A)
                 (A) (A) (A) (A) (A) (A) (A) (A) (A) (A) (A) (A)
                 (A) (A) (A)
       Virtual   (A) (A) (A) (A) (A) (A) (A) (A) (A) (A) (A) (A)
                 (A) (A) (A) (A) (A) (A) (A) (A) (A) (A) (A) (A)
                 (A) (A) (A) (A) (A) (A) (A) (A) (A) (A) (A) (A)
                 (A) (A) (A) (A) (A) (A) (A) (A) (A) (A) (A) (A)
                 (A) (A) (A) (A) (A) (A) (A) (A) (A) (A) (A) (A)
                 (A) (A) (A) (A) (A) (A) (A) (A) (A) (A) (A) (A)
                 (A) (A) (A) (A) (A) (A) (A) (A) (A) (A) (A) (A)
                 (A) (A) (A) (A) (A) (A) (A) (A) (A) (A) (A) (A)
                 (A) (A) (A) (A) (A) (A) (A) (A) (A) (A) (A) (A)
                 (A) (A) (A) (A) (A) (A) (A) (A) (A) (A) (A) (A)
                 (A) (A) (A) (A) (A) (A) (A) (A) (A) (A) (A) (A)
                 (A) (A) (A) (A) (A) (A) (A) (A) (A) (A) (A) (A)
                 (A) (A) (A) (A) (A) (A) (A) (A) (A) (A) (A) (A)
                 (A) (A) (A) (A) (A) (A) (A) (A) (A) (A) (A) (A)
                 (A) (A) (A) (A) (A) (A) (A) (A) (A) (A) (A) (A)
                 (A) (A) (A) (A) (A) (A) (A) (A) (A) (A) (A) (A)
                 (A) (A) (A) (A) (A) (A) (A) (A) (A) (A) (A) (A)
                 (A) (A) (A) (A) (A) (A) (A) (A) (A) (A) (A) (A)
                 (A) (A) (A) (A) (A) (A) (A) (A) (A) (A) (A) (A)
                 (A) (A) (A) (A) (A) (A) (A) (A) (A) (A) (A) (A)
                 (A) (A) (A) (A) (A) (A) (A) (A) (A) (A) (A) (A)
                 (A) (A) (A) (A) (A) (A) (A) (A) (A) (A) (A) (A)
                 (A) (A) (A) (A) (A) (A) (A) (A) (A) (A) (A) (A)
                 (A) (A) (A) (A) (A) (A) (A) (A) (A) (A) (A) (A)
                 (A) (A) (A) (A) (A) (A) (A) (A) (A) (A) (A) (A)
                 (A) (A) (A) (A) (A) (A) (A) (A) (A) (A) (A) (A)
                 (A) (A) (A) (A) (A) (A) (A) (A) (A) (A) (A) (A)
                 (A) (A) (A) (A)
 The electronic state is 1-A.
 Alpha  occ. eigenvalues --  -25.30694 -25.29785 -25.29783 -19.67729 -19.67566
 Alpha  occ. eigenvalues --  -19.62515 -15.02128 -14.84417 -14.81452 -10.83137
 Alpha  occ. eigenvalues --  -10.70736 -10.66218 -10.64500 -10.63443 -10.60639
 Alpha  occ. eigenvalues --  -10.60461 -10.60330 -10.60115 -10.57701 -10.56276
 Alpha  occ. eigenvalues --   -1.44206  -1.40236  -1.36364  -1.36098  -1.20228
 Alpha  occ. eigenvalues --   -1.19227  -1.08267  -1.05311  -1.01744  -0.93617
 Alpha  occ. eigenvalues --   -0.91662  -0.90260  -0.84247  -0.81662  -0.78846
 Alpha  occ. eigenvalues --   -0.74962  -0.72021  -0.70488  -0.70336  -0.68649
 Alpha  occ. eigenvalues --   -0.67714  -0.66526  -0.66277  -0.64792  -0.64724
 Alpha  occ. eigenvalues --   -0.61777  -0.60357  -0.58137  -0.56787  -0.56547
 Alpha  occ. eigenvalues --   -0.56421  -0.55649  -0.55061  -0.54669  -0.52847
 Alpha  occ. eigenvalues --   -0.52240  -0.51887  -0.51624  -0.50974  -0.49714
 Alpha  occ. eigenvalues --   -0.48990  -0.48636  -0.47271  -0.45614  -0.44565
 Alpha  occ. eigenvalues --   -0.42370  -0.42261  -0.40736  -0.40507  -0.37778
 Alpha  occ. eigenvalues --   -0.36982  -0.36269  -0.35534  -0.34120  -0.31587
 Alpha virt. eigenvalues --   -0.06938  -0.02702  -0.02338   0.00841   0.01826
 Alpha virt. eigenvalues --    0.02361   0.02389   0.02970   0.03004   0.04055
 Alpha virt. eigenvalues --    0.04816   0.04858   0.05319   0.06198   0.06353
 Alpha virt. eigenvalues --    0.06625   0.07337   0.07642   0.07914   0.08291
 Alpha virt. eigenvalues --    0.08890   0.08991   0.09614   0.09967   0.10617
 Alpha virt. eigenvalues --    0.11752   0.11764   0.12710   0.12796   0.12909
 Alpha virt. eigenvalues --    0.13473   0.13828   0.14037   0.14921   0.15000
 Alpha virt. eigenvalues --    0.15552   0.16198   0.17338   0.17475   0.17666
 Alpha virt. eigenvalues --    0.18002   0.18394   0.18848   0.18991   0.20035
 Alpha virt. eigenvalues --    0.20056   0.20150   0.20621   0.21508   0.21719
 Alpha virt. eigenvalues --    0.21971   0.22350   0.22806   0.22827   0.23125
 Alpha virt. eigenvalues --    0.23356   0.24283   0.24870   0.25138   0.25191
 Alpha virt. eigenvalues --    0.25422   0.25959   0.26017   0.26864   0.27432
 Alpha virt. eigenvalues --    0.27733   0.28005   0.28278   0.28515   0.29613
 Alpha virt. eigenvalues --    0.30141   0.30363   0.30419   0.30935   0.31453
 Alpha virt. eigenvalues --    0.31720   0.32327   0.32582   0.33103   0.33495
 Alpha virt. eigenvalues --    0.33781   0.34606   0.34823   0.35755   0.36037
 Alpha virt. eigenvalues --    0.36424   0.37453   0.37710   0.39108   0.39418
 Alpha virt. eigenvalues --    0.40220   0.40229   0.40490   0.41555   0.42118
 Alpha virt. eigenvalues --    0.42478   0.43493   0.44214   0.44223   0.44837
 Alpha virt. eigenvalues --    0.45594   0.47831   0.48820   0.49089   0.49288
 Alpha virt. eigenvalues --    0.50297   0.50525   0.51843   0.52749   0.55164
 Alpha virt. eigenvalues --    0.55814   0.56505   0.57997   0.60083   0.64003
 Alpha virt. eigenvalues --    0.65830   0.66992   0.67281   0.68035   0.70840
 Alpha virt. eigenvalues --    0.71729   0.72580   0.73032   0.73760   0.74526
 Alpha virt. eigenvalues --    0.74758   0.75882   0.76349   0.77266   0.77609
 Alpha virt. eigenvalues --    0.80166   0.81594   0.82096   0.84778   0.85332
 Alpha virt. eigenvalues --    0.85741   0.86376   0.86682   0.87722   0.89015
 Alpha virt. eigenvalues --    0.90647   0.93200   0.95674   0.96205   0.97648
 Alpha virt. eigenvalues --    0.98090   0.98892   1.00547   1.01624   1.01917
 Alpha virt. eigenvalues --    1.03267   1.03720   1.06643   1.07373   1.08630
 Alpha virt. eigenvalues --    1.09468   1.10228   1.12108   1.12579   1.13959
 Alpha virt. eigenvalues --    1.14608   1.15989   1.16425   1.16904   1.19335
 Alpha virt. eigenvalues --    1.20016   1.21635   1.21791   1.23641   1.24508
 Alpha virt. eigenvalues --    1.26314   1.27354   1.28203   1.29142   1.29585
 Alpha virt. eigenvalues --    1.30568   1.33731   1.34197   1.35138   1.36728
 Alpha virt. eigenvalues --    1.37098   1.37633   1.38958   1.41332   1.42337
 Alpha virt. eigenvalues --    1.42766   1.43047   1.44230   1.44969   1.45110
 Alpha virt. eigenvalues --    1.46082   1.47120   1.48140   1.49788   1.50094
 Alpha virt. eigenvalues --    1.52886   1.55350   1.55802   1.57977   1.59250
 Alpha virt. eigenvalues --    1.62913   1.65539   1.66296   1.67504   1.69537
 Alpha virt. eigenvalues --    1.71358   1.71654   1.73857   1.74349   1.75156
 Alpha virt. eigenvalues --    1.75965   1.76787   1.78045   1.78908   1.79748
 Alpha virt. eigenvalues --    1.82334   1.83781   1.84494   1.85321   1.85543
 Alpha virt. eigenvalues --    1.86576   1.86902   1.87882   1.88296   1.88503
 Alpha virt. eigenvalues --    1.89331   1.89697   1.90110   1.92713   1.93085
 Alpha virt. eigenvalues --    1.94089   1.94937   1.95416   1.96884   1.97165
 Alpha virt. eigenvalues --    1.97755   1.99752   2.01248   2.02304   2.02423
 Alpha virt. eigenvalues --    2.02809   2.03798   2.04462   2.04787   2.05305
 Alpha virt. eigenvalues --    2.07711   2.09167   2.09915   2.11389   2.12474
 Alpha virt. eigenvalues --    2.13109   2.14611   2.14997   2.17930   2.18383
 Alpha virt. eigenvalues --    2.20527   2.21466   2.22263   2.23905   2.24359
 Alpha virt. eigenvalues --    2.26443   2.27852   2.28474   2.31817   2.32484
 Alpha virt. eigenvalues --    2.33914   2.34962   2.36568   2.37552   2.39030
 Alpha virt. eigenvalues --    2.39672   2.43231   2.46047   2.48777   2.50820
 Alpha virt. eigenvalues --    2.53121   2.54709   2.58373   2.59633   2.63389
 Alpha virt. eigenvalues --    2.63646   2.65470   2.67692   2.71324   2.71778
 Alpha virt. eigenvalues --    2.72634   2.75046   2.76288   2.77149   2.77307
 Alpha virt. eigenvalues --    2.81672   2.83078   2.84862   2.89636   2.94660
 Alpha virt. eigenvalues --    2.98019   2.99515   3.06946   3.09871   3.13793
 Alpha virt. eigenvalues --    3.16307   3.19876   3.24551   3.26171   3.29065
 Alpha virt. eigenvalues --    3.34882   3.40752   3.43027   4.12472   4.22973
 Alpha virt. eigenvalues --    4.25558   4.28719   4.29888   4.34569   4.38381
 Alpha virt. eigenvalues --    4.39917   4.41563   4.47790   4.50139   4.55503
 Alpha virt. eigenvalues --    4.58129   4.64638   4.68238   4.79386   4.91639
 Alpha virt. eigenvalues --    5.59568   6.19488   7.13995
          Condensed to atoms (all electrons):
               1          2          3          4          5          6
     1  C    5.544332   0.017277  -0.017464  -0.006128  -0.029150  -0.001611
     2  C    0.017277   6.120411  -0.388595  -0.084309   0.131040   0.016921
     3  C   -0.017464  -0.388595   6.747933   0.365024  -0.517867  -0.076682
     4  N   -0.006128  -0.084309   0.365024   7.725448   0.353074  -0.200262
     5  C   -0.029150   0.131040  -0.517867   0.353074   6.355639   0.664161
     6  O   -0.001611   0.016921  -0.076682  -0.200262   0.664161   8.261299
     7  N   -0.001365   0.021293  -0.141320  -0.429421   0.017884  -0.063042
     8  C   -0.007417   0.015281  -0.430335  -0.234312  -1.163322  -0.481045
     9  C    0.001647  -0.004706   0.108173   0.103234   1.141740   0.481182
    10  C   -0.002078   0.008276  -0.148809  -0.133408  -1.741176  -0.111981
    11  C   -0.000053   0.000072   0.013540   0.010370   0.149861   0.009075
    12  C   -0.000148   0.000174  -0.030031  -0.013351  -0.391363  -0.021969
    13  C    0.000270  -0.000781   0.012440   0.038442   0.246008   0.081907
    14  H    0.409812  -0.083869   0.027210   0.000562  -0.002350   0.000009
    15  H    0.414840  -0.064060  -0.008278   0.000654   0.001428  -0.000059
    16  H    0.415240  -0.064359  -0.008338   0.000645   0.001396  -0.000059
    17  H   -0.029671   0.414466  -0.080120   0.007553  -0.000489  -0.000231
    18  H   -0.030030   0.414812  -0.080282   0.007586  -0.000369  -0.000232
    19  H    0.006014  -0.055308   0.425502  -0.056778  -0.008538   0.000846
    20  H    0.005464  -0.054732   0.423340  -0.056504  -0.006887   0.000786
    21  H   -0.001174   0.000828  -0.083410   0.229238   0.037018   0.008305
    22  H   -0.000094  -0.000058   0.004702   0.026368  -0.004050   0.006834
    23  H    0.000011  -0.000059   0.003267   0.000865   0.023466   0.002472
    24  H   -0.000000   0.000001  -0.000137   0.001266  -0.004618  -0.000003
    25  C   -0.000016   0.000303  -0.003885   0.006088  -0.127587   0.011356
    26  F   -0.000000   0.000010   0.000060  -0.000036   0.002011  -0.000627
    27  F    0.000000  -0.000001   0.000044   0.000006   0.003633  -0.000009
    28  F    0.000000  -0.000001   0.000046   0.000006   0.003739  -0.000007
    29  N    0.000001  -0.000000   0.000260  -0.000032   0.009461   0.000102
    30  O    0.000000  -0.000000   0.000010   0.000004   0.001932   0.000000
    31  O   -0.000000   0.000000  -0.000002  -0.000001  -0.000188   0.000012
    32  H    0.000000   0.000000   0.000028   0.000013   0.003177   0.000003
               7          8          9         10         11         12
     1  C   -0.001365  -0.007417   0.001647  -0.002078  -0.000053  -0.000148
     2  C    0.021293   0.015281  -0.004706   0.008276   0.000072   0.000174
     3  C   -0.141320  -0.430335   0.108173  -0.148809   0.013540  -0.030031
     4  N   -0.429421  -0.234312   0.103234  -0.133408   0.010370  -0.013351
     5  C    0.017884  -1.163322   1.141740  -1.741176   0.149861  -0.391363
     6  O   -0.063042  -0.481045   0.481182  -0.111981   0.009075  -0.021969
     7  N    7.845829  -0.004707  -0.294462   0.343552   0.060654  -0.003683
     8  C   -0.004707  19.427407  -3.873938   1.545722  -0.792916  -2.750287
     9  C   -0.294462  -3.873938  15.658114  -7.354275  -1.228518  -3.277487
    10  C    0.343552   1.545722  -7.354275  20.613187  -1.098057  -0.832048
    11  C    0.060654  -0.792916  -1.228518  -1.098057  13.514320  -1.302629
    12  C   -0.003683  -2.750287  -3.277487  -0.832048  -1.302629  26.040009
    13  C    0.037761  -4.742191   3.030670  -4.032474  -3.458300  -6.204011
    14  H    0.000010  -0.000045   0.000005  -0.000002  -0.000000  -0.000000
    15  H    0.000019   0.000036  -0.000032   0.000003   0.000000  -0.000000
    16  H    0.000020   0.000036  -0.000031   0.000003   0.000000  -0.000000
    17  H    0.000231  -0.000370  -0.000121   0.000073   0.000005   0.000000
    18  H    0.000202  -0.000337  -0.000156   0.000081   0.000006  -0.000000
    19  H    0.000642  -0.005436   0.003966  -0.001168  -0.000002   0.000006
    20  H    0.000585  -0.005206   0.004019  -0.001104  -0.000006   0.000011
    21  H    0.034369   0.018238   0.003220  -0.003248  -0.000111   0.000063
    22  H    0.225555  -0.046950   0.074179  -0.103794   0.041958  -0.002928
    23  H   -0.015833   0.046681   0.341903   0.029908  -0.018767  -0.061456
    24  H   -0.011400   0.042136   0.048009   0.178083   0.056406  -0.038092
    25  C   -0.004858  -1.202355  -0.136456   0.587435  -0.716951  -2.605924
    26  F   -0.001179   0.143345   0.056016   0.003858   0.005822  -0.004716
    27  F    0.000286   0.029389   0.045594  -0.019302   0.044646  -0.117920
    28  F    0.000289   0.029883   0.046164  -0.019905   0.045344  -0.118594
    29  N   -0.000063   0.003730  -0.077506   0.036869   0.229300  -0.293085
    30  O    0.000004   0.081552   0.047760   0.143421   0.173966  -0.803076
    31  O    0.000009   0.024669   0.107087  -0.027044   0.121434  -0.386583
    32  H    0.000408   0.021467  -0.001042  -0.123414   0.224602   0.085218
              13         14         15         16         17         18
     1  C    0.000270   0.409812   0.414840   0.415240  -0.029671  -0.030030
     2  C   -0.000781  -0.083869  -0.064060  -0.064359   0.414466   0.414812
     3  C    0.012440   0.027210  -0.008278  -0.008338  -0.080120  -0.080282
     4  N    0.038442   0.000562   0.000654   0.000645   0.007553   0.007586
     5  C    0.246008  -0.002350   0.001428   0.001396  -0.000489  -0.000369
     6  O    0.081907   0.000009  -0.000059  -0.000059  -0.000231  -0.000232
     7  N    0.037761   0.000010   0.000019   0.000020   0.000231   0.000202
     8  C   -4.742191  -0.000045   0.000036   0.000036  -0.000370  -0.000337
     9  C    3.030670   0.000005  -0.000032  -0.000031  -0.000121  -0.000156
    10  C   -4.032474  -0.000002   0.000003   0.000003   0.000073   0.000081
    11  C   -3.458300  -0.000000   0.000000   0.000000   0.000005   0.000006
    12  C   -6.204011  -0.000000  -0.000000  -0.000000   0.000000  -0.000000
    13  C   21.539196  -0.000000   0.000000   0.000000  -0.000003  -0.000004
    14  H   -0.000000   0.488499  -0.023866  -0.023881  -0.003089  -0.003092
    15  H    0.000000  -0.023866   0.491264  -0.027637  -0.004861   0.003952
    16  H    0.000000  -0.023881  -0.027637   0.491291   0.003949  -0.004867
    17  H   -0.000003  -0.003089  -0.004861   0.003949   0.510847  -0.034070
    18  H   -0.000004  -0.003092   0.003952  -0.004867  -0.034070   0.510991
    19  H    0.000232  -0.000060  -0.000329   0.002689   0.003867  -0.005334
    20  H    0.000253  -0.000061   0.002682  -0.000326  -0.005344   0.003867
    21  H   -0.000578  -0.000004   0.000001   0.000001   0.001065   0.001067
    22  H    0.013008  -0.000000  -0.000000  -0.000000   0.000002   0.000002
    23  H   -0.064455  -0.000000   0.000000  -0.000000  -0.000000  -0.000000
    24  H    0.019882   0.000000   0.000000   0.000000   0.000000   0.000000
    25  C   -0.791706  -0.000000  -0.000000  -0.000000  -0.000000  -0.000000
    26  F   -0.180865   0.000000   0.000000   0.000000  -0.000000  -0.000000
    27  F    0.094544  -0.000000  -0.000000   0.000000   0.000000  -0.000000
    28  F    0.094842  -0.000000   0.000000  -0.000000  -0.000000   0.000000
    29  N   -0.058466   0.000000   0.000000   0.000000   0.000000   0.000000
    30  O    0.251787  -0.000000  -0.000000  -0.000000  -0.000000  -0.000000
    31  O   -0.158719  -0.000000   0.000000   0.000000  -0.000000  -0.000000
    32  H    0.123993  -0.000000   0.000000   0.000000   0.000000   0.000000
              19         20         21         22         23         24
     1  C    0.006014   0.005464  -0.001174  -0.000094   0.000011  -0.000000
     2  C   -0.055308  -0.054732   0.000828  -0.000058  -0.000059   0.000001
     3  C    0.425502   0.423340  -0.083410   0.004702   0.003267  -0.000137
     4  N   -0.056778  -0.056504   0.229238   0.026368   0.000865   0.001266
     5  C   -0.008538  -0.006887   0.037018  -0.004050   0.023466  -0.004618
     6  O    0.000846   0.000786   0.008305   0.006834   0.002472  -0.000003
     7  N    0.000642   0.000585   0.034369   0.225555  -0.015833  -0.011400
     8  C   -0.005436  -0.005206   0.018238  -0.046950   0.046681   0.042136
     9  C    0.003966   0.004019   0.003220   0.074179   0.341903   0.048009
    10  C   -0.001168  -0.001104  -0.003248  -0.103794   0.029908   0.178083
    11  C   -0.000002  -0.000006  -0.000111   0.041958  -0.018767   0.056406
    12  C    0.000006   0.000011   0.000063  -0.002928  -0.061456  -0.038092
    13  C    0.000232   0.000253  -0.000578   0.013008  -0.064455   0.019882
    14  H   -0.000060  -0.000061  -0.000004  -0.000000  -0.000000   0.000000
    15  H   -0.000329   0.002682   0.000001  -0.000000   0.000000   0.000000
    16  H    0.002689  -0.000326   0.000001  -0.000000  -0.000000   0.000000
    17  H    0.003867  -0.005344   0.001065   0.000002  -0.000000   0.000000
    18  H   -0.005334   0.003867   0.001067   0.000002  -0.000000   0.000000
    19  H    0.489723  -0.034408   0.002794   0.000005  -0.000001   0.000000
    20  H   -0.034408   0.489674   0.002791   0.000005  -0.000001   0.000000
    21  H    0.002794   0.002791   0.345782   0.002673  -0.000002   0.000005
    22  H    0.000005   0.000005   0.002673   0.342498  -0.000130   0.006641
    23  H   -0.000001  -0.000001  -0.000002  -0.000130   0.385384  -0.000105
    24  H    0.000000   0.000000   0.000005   0.006641  -0.000105   0.486316
    25  C   -0.000012  -0.000010  -0.000037   0.001417   0.004313   0.004518
    26  F    0.000000   0.000000   0.000000  -0.000001   0.008475  -0.000000
    27  F   -0.000000   0.000000  -0.000000  -0.000000   0.000030   0.000001
    28  F    0.000000  -0.000000  -0.000000  -0.000000   0.000026   0.000001
    29  N    0.000000   0.000000   0.000000  -0.000030   0.000047  -0.000467
    30  O   -0.000000  -0.000000  -0.000000   0.000003   0.000040   0.000056
    31  O   -0.000000  -0.000000  -0.000000  -0.000001  -0.000074   0.000056
    32  H   -0.000000  -0.000000  -0.000000  -0.000011   0.000008  -0.004037
              25         26         27         28         29         30
     1  C   -0.000016  -0.000000   0.000000   0.000000   0.000001   0.000000
     2  C    0.000303   0.000010  -0.000001  -0.000001  -0.000000  -0.000000
     3  C   -0.003885   0.000060   0.000044   0.000046   0.000260   0.000010
     4  N    0.006088  -0.000036   0.000006   0.000006  -0.000032   0.000004
     5  C   -0.127587   0.002011   0.003633   0.003739   0.009461   0.001932
     6  O    0.011356  -0.000627  -0.000009  -0.000007   0.000102   0.000000
     7  N   -0.004858  -0.001179   0.000286   0.000289  -0.000063   0.000004
     8  C   -1.202355   0.143345   0.029389   0.029883   0.003730   0.081552
     9  C   -0.136456   0.056016   0.045594   0.046164  -0.077506   0.047760
    10  C    0.587435   0.003858  -0.019302  -0.019905   0.036869   0.143421
    11  C   -0.716951   0.005822   0.044646   0.045344   0.229300   0.173966
    12  C   -2.605924  -0.004716  -0.117920  -0.118594  -0.293085  -0.803076
    13  C   -0.791706  -0.180865   0.094544   0.094842  -0.058466   0.251787
    14  H   -0.000000   0.000000  -0.000000  -0.000000   0.000000  -0.000000
    15  H   -0.000000   0.000000  -0.000000   0.000000   0.000000  -0.000000
    16  H   -0.000000   0.000000   0.000000  -0.000000   0.000000  -0.000000
    17  H   -0.000000  -0.000000   0.000000  -0.000000   0.000000  -0.000000
    18  H   -0.000000  -0.000000  -0.000000   0.000000   0.000000  -0.000000
    19  H   -0.000012   0.000000  -0.000000   0.000000   0.000000  -0.000000
    20  H   -0.000010   0.000000   0.000000  -0.000000   0.000000  -0.000000
    21  H   -0.000037   0.000000  -0.000000  -0.000000   0.000000  -0.000000
    22  H    0.001417  -0.000001  -0.000000  -0.000000  -0.000030   0.000003
    23  H    0.004313   0.008475   0.000030   0.000026   0.000047   0.000040
    24  H    0.004518  -0.000000   0.000001   0.000001  -0.000467   0.000056
    25  C    9.213189   0.106274   0.069748   0.069003  -0.341680   0.005952
    26  F    0.106274   9.262286  -0.037089  -0.037130   0.000976   0.000019
    27  F    0.069748  -0.037089   9.204807  -0.044240   0.003271  -0.001617
    28  F    0.069003  -0.037130  -0.044240   9.204637   0.003219  -0.001619
    29  N   -0.341680   0.000976   0.003271   0.003219   7.274520   0.306547
    30  O    0.005952   0.000019  -0.001617  -0.001619   0.306547   7.864361
    31  O    0.274331   0.000883  -0.021028  -0.021010   0.309244  -0.087232
    32  H    0.001389   0.000007  -0.000011  -0.000011  -0.044095   0.020951
              31         32
     1  C   -0.000000   0.000000
     2  C    0.000000   0.000000
     3  C   -0.000002   0.000028
     4  N   -0.000001   0.000013
     5  C   -0.000188   0.003177
     6  O    0.000012   0.000003
     7  N    0.000009   0.000408
     8  C    0.024669   0.021467
     9  C    0.107087  -0.001042
    10  C   -0.027044  -0.123414
    11  C    0.121434   0.224602
    12  C   -0.386583   0.085218
    13  C   -0.158719   0.123993
    14  H   -0.000000  -0.000000
    15  H    0.000000   0.000000
    16  H    0.000000   0.000000
    17  H   -0.000000   0.000000
    18  H   -0.000000   0.000000
    19  H   -0.000000  -0.000000
    20  H   -0.000000  -0.000000
    21  H   -0.000000  -0.000000
    22  H   -0.000001  -0.000011
    23  H   -0.000074   0.000008
    24  H    0.000056  -0.004037
    25  C    0.274331   0.001389
    26  F    0.000883   0.000007
    27  F   -0.021028  -0.000011
    28  F   -0.021010  -0.000011
    29  N    0.309244  -0.044095
    30  O   -0.087232   0.020951
    31  O    7.874025  -0.002219
    32  H   -0.002219   0.432878
 Mulliken charges:
               1
     1  C   -0.688508
     2  C   -0.360330
     3  C   -0.116022
     4  N   -0.661902
     5  C    0.851286
     6  O   -0.587451
     7  N   -0.618269
     8  C    0.311598
     9  C    0.946048
    10  C   -1.737182
    11  C   -0.085069
    12  C   -0.866100
    13  C    0.107317
    14  H    0.214214
    15  H    0.214243
    16  H    0.214227
    17  H    0.216313
    18  H    0.216210
    19  H    0.231088
    20  H    0.231113
    21  H    0.401105
    22  H    0.412194
    23  H    0.313983
    24  H    0.215482
    25  C    1.576164
    26  F   -0.328398
    27  F   -0.254780
    28  F   -0.254681
    29  N   -0.362125
    30  O   -0.004820
    31  O   -0.007648
    32  H    0.260699
 Sum of Mulliken charges =  -0.00000
 Mulliken charges with hydrogens summed into heavy atoms:
               1
     1  C   -0.045824
     2  C    0.072193
     3  C    0.346178
     4  N   -0.260796
     5  C    0.851286
     6  O   -0.587451
     7  N   -0.206075
     8  C    0.311598
     9  C    1.260031
    10  C   -1.521700
    11  C    0.175630
    12  C   -0.866100
    13  C    0.107317
    25  C    1.576164
    26  F   -0.328398
    27  F   -0.254780
    28  F   -0.254681
    29  N   -0.362125
    30  O   -0.004820
    31  O   -0.007648
 Electronic spatial extent (au):  <R**2>=           8958.9292
 Charge=             -0.0000 electrons
 Dipole moment (field-independent basis, Debye):
    X=             -9.6868    Y=             -5.7515    Z=             -0.0329  Tot=             11.2657
 Quadrupole moment (field-independent basis, Debye-Ang):
   XX=           -123.0773   YY=           -111.0824   ZZ=           -117.3039
   XY=             10.1328   XZ=              0.0135   YZ=              0.0335
 Traceless Quadrupole moment (field-independent basis, Debye-Ang):
   XX=             -5.9228   YY=              6.0721   ZZ=             -0.1493
   XY=             10.1328   XZ=              0.0135   YZ=              0.0335
 Octapole moment (field-independent basis, Debye-Ang**2):
  XXX=           -266.4117  YYY=             -4.6699  ZZZ=              0.0934  XYY=            -11.0392
  XXY=              4.4623  XXZ=             -0.3810  XZZ=             21.0120  YZZ=             14.0611
  YYZ=             -0.1649  XYZ=              0.0058
 Hexadecapole moment (field-independent basis, Debye-Ang**3):
 XXXX=          -9847.0526 YYYY=          -1338.7925 ZZZZ=           -212.4576 XXXY=            302.5437
 XXXZ=             -0.8601 YYYX=            137.3512 YYYZ=              0.1664 ZZZX=              0.0544
 ZZZY=             -0.1254 XXYY=          -1930.5418 XXZZ=          -1659.5518 YYZZ=           -281.8502
 XXYZ=              0.4947 YYXZ=              0.3849 ZZXY=              8.9288
 N-N= 1.571756093655D+03 E-N=-5.755577764606D+03  KE= 1.106049870982D+03
 Calling FoFJK, ICntrl=      2127 FMM=F ISym2X=0 I1Cent= 0 IOpClX= 0 NMat=1 NMatS=1 NMatT=0.
 ***** Axes restored to original set *****
 -------------------------------------------------------------------
 Center     Atomic                   Forces (Hartrees/Bohr)
 Number     Number              X              Y              Z
 -------------------------------------------------------------------
      1        6          -0.006138898    0.001261349   -0.000142482
      2        6           0.005564495   -0.005569257    0.000302612
      3        6          -0.006520042    0.007036645   -0.000331358
      4        7           0.013932124   -0.037562385    0.001674352
      5        6          -0.018021894    0.032334911   -0.001491642
      6        8           0.004095726    0.010222119   -0.000387254
      7        7           0.031476601   -0.025202897    0.001549630
      8        6          -0.018914760   -0.002459157   -0.000261591
      9        6           0.018932469    0.002765663    0.000277894
     10        6          -0.000289545    0.004525213   -0.000186973
     11        6          -0.026470456    0.032792336   -0.002139636
     12        6          -0.042852380    0.000520671   -0.001053642
     13        6          -0.003709161   -0.020037121    0.000835494
     14        1           0.006017413    0.009738720   -0.000273347
     15        1          -0.001036140   -0.004516210    0.009737290
     16        1          -0.000690090   -0.005244852   -0.009418066
     17        1           0.000706409    0.003595703    0.008593747
     18        1           0.001039708    0.002926227   -0.008804023
     19        1           0.002069214   -0.003694713   -0.010245840
     20        1           0.001694545   -0.002921091    0.010557607
     21        1          -0.004562642    0.016813776   -0.000747066
     22        1           0.006905406    0.015903097   -0.000487604
     23        1          -0.008489447    0.003567210   -0.000309968
     24        1          -0.001484386   -0.002816255    0.000096505
     25        6           0.009752898    0.017350776   -0.000546671
     26        9           0.034926826   -0.020748223    0.001773403
     27        9          -0.024662200    0.000550818    0.033161020
     28        9          -0.023081747   -0.002533121   -0.034215289
     29        7           0.013744921    0.007360105    0.000049813
     30        8           0.015629743   -0.064970090    0.003287525
     31        8          -0.012266448    0.056643570   -0.002874921
     32        1           0.032701738   -0.027633536    0.002020480
 -------------------------------------------------------------------
 Cartesian Forces:  Max     0.064970090 RMS     0.016640969

 GradGradGradGradGradGradGradGradGradGradGradGradGradGradGradGradGradGrad
 Berny optimization.
 FormGI is forming the generalized inverse of G from B-inverse, IUseBI=4.
 GSVD:  received Info=                   1 from GESDD.
 Internal  Forces:  Max     0.058416115 RMS     0.012395431
 Search for a local minimum.
 Step number   1 out of a maximum of  166
 All quantities printed in internal units (Hartrees-Bohrs-Radians)
 Mixed Optimization -- RFO/linear search
 Second derivative matrix not updated -- first step.
 ITU=  0
     Eigenvalues ---    0.00323   0.00426   0.00461   0.00994   0.01152
     Eigenvalues ---    0.01202   0.01202   0.01242   0.01467   0.01624
     Eigenvalues ---    0.01649   0.01731   0.01783   0.01878   0.01970
     Eigenvalues ---    0.02094   0.02134   0.02141   0.02145   0.02175
     Eigenvalues ---    0.02189   0.03741   0.04447   0.04929   0.05552
     Eigenvalues ---    0.05673   0.05791   0.08055   0.09158   0.10820
     Eigenvalues ---    0.11117   0.11992   0.12653   0.16000   0.16000
     Eigenvalues ---    0.16000   0.16000   0.16000   0.16000   0.16000
     Eigenvalues ---    0.16000   0.21966   0.22000   0.22000   0.22001
     Eigenvalues ---    0.22359   0.23482   0.24589   0.25000   0.25000
     Eigenvalues ---    0.25000   0.25000   0.25000   0.25000   0.25000
     Eigenvalues ---    0.25000   0.25000   0.25000   0.29102   0.29827
     Eigenvalues ---    0.30078   0.32340   0.32341   0.32401   0.32401
     Eigenvalues ---    0.32512   0.32515   0.32547   0.35708   0.37166
     Eigenvalues ---    0.37890   0.39113   0.39477   0.39999   0.40281
     Eigenvalues ---    0.42438   0.42452   0.42476   0.42546   0.44562
     Eigenvalues ---    0.44970   0.47039   0.48243   0.48476   0.48477
     Eigenvalues ---    0.51049   0.52259   0.95149   1.07382   1.08973
 RFO step:  Lambda=-5.14869082D-02 EMin= 3.22792349D-03
 Linear search not attempted -- first point.
 Maximum step size (   0.300) exceeded in Quadratic search.
    -- Step size scaled by   0.832
 Iteration  1 RMS(Cart)=  0.08015242 RMS(Int)=  0.00158607
 Iteration  2 RMS(Cart)=  0.00226691 RMS(Int)=  0.00022973
 Iteration  3 RMS(Cart)=  0.00000504 RMS(Int)=  0.00022970
 Iteration  4 RMS(Cart)=  0.00000001 RMS(Int)=  0.00022970
 Variable       Old X    -DE/DX   Delta X   Delta X   Delta X     New X
                                 (Linear)    (Quad)   (Total)
    R1        2.88310   0.00221   0.00000   0.00525   0.00525   2.88835
    R2        2.09854  -0.01108   0.00000  -0.02446  -0.02446   2.07407
    R3        2.09911  -0.01050   0.00000  -0.02319  -0.02319   2.07592
    R4        2.09917  -0.01052   0.00000  -0.02324  -0.02324   2.07593
    R5        2.89790  -0.00553   0.00000  -0.01342  -0.01342   2.88448
    R6        2.10116  -0.00891   0.00000  -0.01973  -0.01973   2.08142
    R7        2.10116  -0.00889   0.00000  -0.01971  -0.01971   2.08145
    R8        2.74526  -0.00122   0.00000  -0.00236  -0.00236   2.74290
    R9        2.10226  -0.01052   0.00000  -0.02335  -0.02335   2.07891
   R10        2.10225  -0.01053   0.00000  -0.02336  -0.02336   2.07889
   R11        2.57652  -0.00109   0.00000  -0.00159  -0.00159   2.57493
   R12        1.95069  -0.01696   0.00000  -0.02965  -0.02965   1.92104
   R13        2.30647   0.01012   0.00000   0.00839   0.00839   2.31486
   R14        2.58821   0.01379   0.00000   0.02042   0.02042   2.60864
   R15        2.72271  -0.03953   0.00000  -0.07370  -0.07370   2.64901
   R16        1.95052  -0.01636   0.00000  -0.02859  -0.02859   1.92193
   R17        2.67236  -0.01413   0.00000  -0.02464  -0.02466   2.64770
   R18        2.64551  -0.00524   0.00000  -0.00787  -0.00788   2.63763
   R19        2.67928  -0.02548   0.00000  -0.04534  -0.04535   2.63393
   R20        2.02297   0.00860   0.00000   0.01692   0.01692   2.03989
   R21        2.62139  -0.00605   0.00000  -0.00849  -0.00848   2.61291
   R22        2.04541   0.00304   0.00000   0.00619   0.00619   2.05160
   R23        2.64725  -0.01010   0.00000  -0.01620  -0.01618   2.63107
   R24        1.95021   0.04280   0.00000   0.07477   0.07477   2.02498
   R25        2.70623  -0.01495   0.00000  -0.02791  -0.02790   2.67833
   R26        2.71555   0.01646   0.00000   0.03033   0.03033   2.74588
   R27        2.87808  -0.00583   0.00000  -0.01376  -0.01376   2.86432
   R28        2.61681  -0.04065   0.00000  -0.06334  -0.06334   2.55347
   R29        2.61435  -0.04013   0.00000  -0.06227  -0.06227   2.55209
   R30        2.61434  -0.04016   0.00000  -0.06230  -0.06230   2.55204
   R31        2.25820   0.05842   0.00000   0.04319   0.04319   2.30139
   R32        2.25246   0.04971   0.00000   0.03624   0.03624   2.28870
    A1        1.91174   0.00340   0.00000   0.01420   0.01412   1.92586
    A2        1.92601   0.00222   0.00000   0.00831   0.00826   1.93427
    A3        1.92584   0.00222   0.00000   0.00831   0.00827   1.93411
    A4        1.89672  -0.00258   0.00000  -0.00936  -0.00944   1.88729
    A5        1.89656  -0.00257   0.00000  -0.00929  -0.00937   1.88720
    A6        1.90646  -0.00285   0.00000  -0.01277  -0.01278   1.89368
    A7        1.94378  -0.00134   0.00000  -0.00226  -0.00226   1.94152
    A8        1.90077   0.00146   0.00000   0.00787   0.00786   1.90863
    A9        1.90039   0.00149   0.00000   0.00803   0.00803   1.90841
   A10        1.91014  -0.00000   0.00000  -0.00141  -0.00142   1.90872
   A11        1.91013  -0.00002   0.00000  -0.00147  -0.00148   1.90865
   A12        1.89804  -0.00159   0.00000  -0.01094  -0.01097   1.88707
   A13        1.93499  -0.00376   0.00000  -0.00971  -0.00968   1.92531
   A14        1.90603   0.00263   0.00000   0.01181   0.01180   1.91783
   A15        1.90636   0.00262   0.00000   0.01168   0.01166   1.91802
   A16        1.90657   0.00059   0.00000   0.00036   0.00039   1.90695
   A17        1.90703   0.00056   0.00000   0.00014   0.00017   1.90720
   A18        1.90258  -0.00264   0.00000  -0.01446  -0.01451   1.88807
   A19        2.13027  -0.00727   0.00000  -0.02227  -0.02227   2.10801
   A20        2.07556  -0.00032   0.00000  -0.00442  -0.00442   2.07113
   A21        2.07735   0.00759   0.00000   0.02669   0.02669   2.10405
   A22        2.08122   0.01711   0.00000   0.04722   0.04722   2.12844
   A23        2.08249  -0.02417   0.00000  -0.06668  -0.06668   2.01581
   A24        2.11948   0.00705   0.00000   0.01946   0.01946   2.13894
   A25        2.24185  -0.01038   0.00000  -0.03182  -0.03182   2.21004
   A26        2.02253   0.01081   0.00000   0.03803   0.03803   2.06056
   A27        2.01880  -0.00043   0.00000  -0.00621  -0.00621   2.01259
   A28        2.17878  -0.00951   0.00000  -0.02691  -0.02690   2.15189
   A29        2.04827   0.00201   0.00000   0.00488   0.00489   2.05316
   A30        2.05614   0.00750   0.00000   0.02203   0.02200   2.07814
   A31        2.12755  -0.00365   0.00000  -0.01310  -0.01312   2.11442
   A32        2.10465  -0.00151   0.00000  -0.00657  -0.00656   2.09809
   A33        2.05099   0.00516   0.00000   0.01967   0.01968   2.07067
   A34        2.11480  -0.00627   0.00000  -0.01508  -0.01508   2.09972
   A35        2.10514   0.00217   0.00000   0.00372   0.00372   2.10886
   A36        2.06324   0.00411   0.00000   0.01136   0.01136   2.07461
   A37        2.13044  -0.00620   0.00000  -0.01547  -0.01545   2.11499
   A38        2.07638   0.00527   0.00000   0.01629   0.01628   2.09266
   A39        2.07637   0.00092   0.00000  -0.00082  -0.00083   2.07554
   A40        2.06404   0.00592   0.00000   0.01653   0.01655   2.08059
   A41        2.04557  -0.01258   0.00000  -0.03479  -0.03480   2.01077
   A42        2.17357   0.00665   0.00000   0.01827   0.01825   2.19183
   A43        2.07340   0.00270   0.00000   0.00510   0.00511   2.07851
   A44        2.06855  -0.01758   0.00000  -0.04735  -0.04735   2.02120
   A45        2.14123   0.01488   0.00000   0.04225   0.04224   2.18348
   A46        1.96305  -0.00597   0.00000  -0.02335  -0.02302   1.94003
   A47        1.91717   0.01503   0.00000   0.04488   0.04395   1.96112
   A48        1.91723   0.01503   0.00000   0.04487   0.04395   1.96118
   A49        1.87337  -0.00859   0.00000  -0.03040  -0.03010   1.84327
   A50        1.87340  -0.00859   0.00000  -0.03040  -0.03010   1.84330
   A51        1.91858  -0.00822   0.00000  -0.00908  -0.01095   1.90763
   A52        2.09011  -0.02662   0.00000  -0.07347  -0.07347   2.01664
   A53        2.12548  -0.02040   0.00000  -0.05630  -0.05630   2.06918
   A54        2.06759   0.04703   0.00000   0.12977   0.12977   2.19736
    D1       -3.14153  -0.00000   0.00000  -0.00004  -0.00004  -3.14157
    D2        1.03353  -0.00012   0.00000  -0.00204  -0.00203   1.03149
    D3       -1.03366   0.00011   0.00000   0.00199   0.00198  -1.03168
    D4        1.05421  -0.00033   0.00000  -0.00256  -0.00257   1.05163
    D5       -1.05393  -0.00044   0.00000  -0.00455  -0.00456  -1.05849
    D6       -3.12111  -0.00022   0.00000  -0.00053  -0.00055  -3.12166
    D7       -1.05437   0.00033   0.00000   0.00256   0.00257  -1.05180
    D8        3.12068   0.00022   0.00000   0.00056   0.00058   3.12126
    D9        1.05349   0.00045   0.00000   0.00458   0.00459   1.05809
   D10        3.14017   0.00002   0.00000   0.00021   0.00021   3.14038
   D11        1.03858  -0.00004   0.00000  -0.00177  -0.00175   1.03684
   D12       -1.04064   0.00005   0.00000   0.00184   0.00182  -1.03883
   D13       -1.04039   0.00099   0.00000   0.00766   0.00766  -1.03273
   D14        3.14121   0.00092   0.00000   0.00568   0.00570  -3.13628
   D15        1.06199   0.00102   0.00000   0.00929   0.00926   1.07125
   D16        1.03803  -0.00097   0.00000  -0.00740  -0.00740   1.03063
   D17       -1.06356  -0.00103   0.00000  -0.00939  -0.00936  -1.07291
   D18        3.14040  -0.00094   0.00000  -0.00577  -0.00579   3.13461
   D19       -3.14077  -0.00001   0.00000  -0.00014  -0.00014  -3.14091
   D20       -0.00002  -0.00001   0.00000  -0.00006  -0.00006  -0.00008
   D21       -1.03950   0.00127   0.00000   0.00865   0.00865  -1.03085
   D22        2.10125   0.00127   0.00000   0.00873   0.00873   2.10998
   D23        1.04044  -0.00126   0.00000  -0.00862  -0.00862   1.03182
   D24       -2.10199  -0.00125   0.00000  -0.00854  -0.00854  -2.11053
   D25       -0.00070  -0.00002   0.00000  -0.00028  -0.00028  -0.00098
   D26        3.13981   0.00003   0.00000   0.00042   0.00043   3.14023
   D27       -3.14145  -0.00003   0.00000  -0.00035  -0.00035   3.14139
   D28       -0.00095   0.00003   0.00000   0.00036   0.00036  -0.00058
   D29       -3.14069  -0.00003   0.00000  -0.00032  -0.00032  -3.14100
   D30       -0.00089  -0.00003   0.00000  -0.00027  -0.00027  -0.00116
   D31       -0.00021   0.00004   0.00000   0.00042   0.00042   0.00021
   D32        3.13959   0.00004   0.00000   0.00047   0.00047   3.14005
   D33       -0.00689   0.00003   0.00000   0.00037   0.00038  -0.00651
   D34        3.13477   0.00004   0.00000   0.00052   0.00052   3.13529
   D35        3.13650   0.00002   0.00000   0.00029   0.00029   3.13679
   D36       -0.00503   0.00003   0.00000   0.00043   0.00043  -0.00459
   D37        3.14117   0.00002   0.00000   0.00024   0.00024   3.14141
   D38       -0.00086   0.00004   0.00000   0.00045   0.00045  -0.00041
   D39       -0.00049   0.00001   0.00000   0.00009   0.00009  -0.00040
   D40        3.14066   0.00003   0.00000   0.00030   0.00030   3.14097
   D41       -3.14092  -0.00003   0.00000  -0.00033  -0.00034  -3.14126
   D42        0.00006  -0.00001   0.00000  -0.00016  -0.00017  -0.00011
   D43        0.00073  -0.00002   0.00000  -0.00019  -0.00019   0.00054
   D44       -3.14147  -0.00000   0.00000  -0.00002  -0.00002  -3.14150
   D45       -0.00013   0.00000   0.00000   0.00005   0.00005  -0.00007
   D46        3.14145   0.00000   0.00000   0.00002   0.00002   3.14146
   D47       -3.14129  -0.00001   0.00000  -0.00015  -0.00015  -3.14144
   D48        0.00028  -0.00002   0.00000  -0.00019  -0.00019   0.00010
   D49       -0.00036   0.00002   0.00000   0.00016   0.00016  -0.00020
   D50        3.14125   0.00001   0.00000   0.00007   0.00007   3.14132
   D51       -3.14136   0.00000   0.00000  -0.00000  -0.00001  -3.14136
   D52        0.00025  -0.00001   0.00000  -0.00009  -0.00010   0.00015
   D53       -0.00028   0.00000   0.00000  -0.00000  -0.00000  -0.00028
   D54        3.14137  -0.00000   0.00000  -0.00003  -0.00003   3.14134
   D55        3.14130   0.00001   0.00000   0.00009   0.00009   3.14139
   D56       -0.00024   0.00001   0.00000   0.00006   0.00006  -0.00018
   D57        0.00051  -0.00001   0.00000  -0.00009  -0.00009   0.00041
   D58       -3.14107  -0.00000   0.00000  -0.00005  -0.00005  -3.14112
   D59       -3.14114  -0.00000   0.00000  -0.00006  -0.00006  -3.14121
   D60        0.00047  -0.00000   0.00000  -0.00002  -0.00002   0.00044
   D61       -0.00029   0.00003   0.00000   0.00037   0.00037   0.00008
   D62       -3.14143  -0.00002   0.00000  -0.00030  -0.00030   3.14145
   D63        3.14136   0.00003   0.00000   0.00034   0.00034  -3.14149
   D64        0.00022  -0.00003   0.00000  -0.00034  -0.00034  -0.00011
   D65       -0.00036  -0.00000   0.00000  -0.00001  -0.00001  -0.00037
   D66       -2.08571   0.00450   0.00000   0.02301   0.02383  -2.06188
   D67        2.08507  -0.00450   0.00000  -0.02302  -0.02385   2.06122
   D68        3.14121  -0.00000   0.00000  -0.00005  -0.00005   3.14117
   D69        1.05586   0.00450   0.00000   0.02297   0.02379   1.07965
   D70       -1.05655  -0.00450   0.00000  -0.02306  -0.02389  -1.08043
         Item               Value     Threshold  Converged?
 Maximum Force            0.058416     0.000450     NO 
 RMS     Force            0.012395     0.000300     NO 
 Maximum Displacement     0.359262     0.001800     NO 
 RMS     Displacement     0.080771     0.001200     NO 
 Predicted change in Energy=-2.742308D-02
 GradGradGradGradGradGradGradGradGradGradGradGradGradGradGradGradGradGrad

                          Input orientation:                          
 ---------------------------------------------------------------------
 Center     Atomic      Atomic             Coordinates (Angstroms)
 Number     Number       Type             X           Y           Z
 ---------------------------------------------------------------------
      1          6           0       -1.962083    1.848724   -0.081455
      2          6           0       -0.591285    1.174555   -0.030805
      3          6           0        0.533444    2.206310   -0.049767
      4          7           0        1.824612    1.545137    0.000588
      5          6           0        2.979214    2.268689   -0.004965
      6          8           0        2.976945    3.492712   -0.053119
      7          7           0        4.143920    1.529579    0.047642
      8          6           0        5.452963    2.030961    0.054647
      9          6           0        5.753107    3.398432   -0.000389
     10          6           0        6.499015    1.109161    0.119787
     11          6           0        7.811786    1.543161    0.130308
     12          6           0        8.123160    2.899129    0.076461
     13          6           0        7.072419    3.847927    0.009413
     14          1           0       -2.759096    1.094280   -0.067102
     15          1           0       -2.071030    2.443764   -0.998419
     16          1           0       -2.103302    2.511614    0.783077
     17          1           0       -0.483543    0.500982   -0.895598
     18          1           0       -0.516051    0.569270    0.886352
     19          1           0        0.437152    2.880697    0.814049
     20          1           0        0.470865    2.811505   -0.966308
     21          1           0        1.851290    0.529714    0.040846
     22          1           0        4.066156    0.516293    0.087279
     23          1           0        4.958536    4.127307   -0.051748
     24          1           0        6.299120    0.042956    0.163373
     25          6           0        7.257927    5.350907   -0.054551
     26          9           0        6.067257    5.987263   -0.111154
     27          9           0        7.930387    5.739098   -1.159527
     28          9           0        7.879278    5.839105    1.040616
     29          7           0        9.542581    3.209394    0.095320
     30          8           0       10.289266    2.249209    0.155734
     31          8           0        9.881876    4.371171    0.050714
     32          1           0        8.609834    0.829823    0.180713
[...]
 15,-0.00098788,0.00088427,-0.00041148,-0.01437367,-0.01524121,0.037758
 69,-0.00003651,-0.00000206,0.00000052,-0.00000015,0.00001013,-0.000014
 12,0.00000296,0.00001200,0.00000774,0.00000012,-0.00000556,0.00000856,
 0.00001104,0.00000094,-0.00000925,-0.00001017,0.00001320,0.00000025,-0
 .00008209,0.00004127,-0.00004348,0.00006345,0.00007755,0.00000229,-0.0
 0005422,0.00000013,0.00006256,0.00010399,-0.00021936,0.00117895,-0.000
 02622,-0.00005904,0.00014736,-0.03008789,-0.12641667,0.08813346,0.0075
 4315,0.01880352,-0.01496214,0.02823694,0.11472219,0.00000314,0.0000323
 1,-0.00001571,0.00001263,-0.00005406,0.00001104,-0.00021522,0.00012718
 ,-0.00006409,0.00061929,0.00023509,0.00002500,-0.00105341,-0.00013439,
 -0.00022528,0.00050031,0.00012079,0.00029988,0.00072938,0.00031534,0.0
 0016764,-0.00010340,-0.00010170,0.00065075,-0.00084602,0.00253791,0.00
 014720,-0.00011237,0.00027311,-0.00009992,-0.00026078,0.00083933,0.000
 40573,0.00114683,0.00029885,0.00016252,0.00774205,0.01200669,-0.011662
 38,0.00002337,0.00000266,-0.00000105,0.00000161,-0.00001047,0.00001326
 ,-0.00000569,-0.00000200,0.00000070,0.00000177,0.00001713,0.00000174,-
 0.00000806,-0.00000878,0.00001040,-0.00000863,-0.00000849,0.00000854,0
 .00005800,-0.00003341,0.00003740,-0.00001681,-0.00003425,-0.00002792,0
 .00007124,0.00000957,-0.00007549,-0.00041066,-0.00028319,-0.00097671,-
 0.00000891,0.00007021,-0.00008821,0.05430050,0.08808451,-0.24082135,0.
 04734124,-0.00400243,-0.03855109,-0.09186533,-0.11136754,0.36338398,-0
 .00000613,-0.00003459,0.00000385,0.00000523,0.00005292,-0.00001699,0.0
 0019067,-0.00008535,-0.00001969,-0.00054497,-0.00038768,0.00006414,0.0
 0060397,0.00106874,0.00006202,-0.00048038,-0.00073707,0.00002195,0.000
 27427,-0.00040114,0.00005847,-0.00032721,0.00069642,0.00099183,0.00100
 906,-0.00264789,-0.00033894,0.00105085,-0.00077139,-0.00000380,-0.0004
 0240,-0.00173242,0.00104247,-0.00151174,0.00015586,0.00005960,-0.01087
 038,-0.01037260,-0.01766262,-0.00003002,-0.00001026,0.00000117,0.00000
 702,0.00000959,0.00000085,0.00000758,0.00001117,-0.00000321,-0.0000041
 9,-0.00001155,-0.00000123,0.00000133,-0.00000835,0.00000694,0.00001387
 ,0.00001826,-0.00001561,-0.00002376,0.00002833,0.00000049,0.00000585,0
 .00004984,-0.00004643,-0.00006870,-0.00003140,-0.00005891,0.00083215,0
 .00080638,-0.00051605,0.00010956,-0.00007115,-0.00013318,-0.17880818,-
 0.05527525,-0.10170632,-0.07880158,0.00749580,-0.02996425,0.01018123,0
 .00509386,-0.01826588,0.26185413,-0.00000463,-0.00005261,0.00000497,-0
 .00002151,0.00007747,-0.00002338,0.00030027,-0.00019291,-0.00001605,-0
 .00088907,-0.00016956,0.00007594,0.00190320,-0.00070800,0.00003795,-0.
 00070823,0.00045151,0.00005080,-0.00154599,-0.00039119,0.00009643,-0.0
 0020332,0.00032281,0.00160390,0.00255302,-0.00553471,-0.00103956,-0.00
 040860,-0.00053107,-0.00012709,-0.00031498,0.00009325,0.00061400,-0.00
 051053,0.00118013,0.00007949,-0.03334155,-0.00975808,-0.02701805,-0.00
 003474,-0.00000324,0.00000039,0.00000239,0.00000849,-0.00000823,0.0000
 0245,0.00001397,0.00000686,0.00000027,-0.00000144,0.00000910,0.0000083
 5,-0.00000506,-0.00000346,-0.00001230,0.00001536,-0.00000142,-0.000067
 29,0.00003533,-0.00002834,0.00006198,0.00008158,-0.00002058,-0.0001180
 7,-0.00000941,-0.00005650,0.00021180,-0.00000872,-0.00077609,-0.000015
 79,-0.00006995,-0.00008727,-0.05348947,-0.10884038,-0.04865524,0.02069
 310,0.01544549,0.01121949,0.00911827,0.01609862,0.01048402,0.05313851,
 0.09629914,-0.00000466,-0.00002707,-0.00000160,-0.00000019,0.00003833,
 -0.00001489,0.00013531,-0.00007117,-0.00004528,-0.00042379,-0.00020877
 ,0.00007807,0.00067895,0.00028718,-0.00003154,-0.00035999,-0.00021452,
 0.00012307,-0.00025994,-0.00042865,0.00011278,-0.00074040,0.00078001,0
 .00003986,0.00067432,-0.00382514,-0.00007294,0.00055710,-0.00028506,0.
 00004775,-0.00023990,-0.00096413,0.00027658,-0.00042235,0.00117588,0.0
 0032923,-0.01615587,-0.00541537,-0.00385079,-0.00002075,-0.00000568,0.
 00000012,0.00000514,0.00000426,0.00000327,0.00000281,0.00001083,0.0000
 0060,-0.00000210,-0.00000077,0.00000348,0.00000073,-0.00001055,0.00000
 740,-0.00000083,0.00001387,-0.00000758,-0.00001740,0.00001773,0.000004
 74,0.00001856,0.00004574,-0.00004434,-0.00010871,-0.00001711,-0.000055
 05,0.00043500,0.00023007,-0.00023740,0.00003713,-0.00006330,-0.0000396
 6,-0.09845634,-0.05143066,-0.16232999,-0.01944323,0.00672797,0.0114248
 4,-0.03150522,0.00009212,-0.07338919,0.16081252,0.05848971,0.23140881,
 0.00003678,0.00022653,-0.00002992,0.00006357,-0.00039104,0.00008323,-0
 .00128153,0.00069607,0.00013296,0.00424082,0.00109083,-0.00048427,-0.0
 1001575,0.00507970,-0.00052838,0.00179226,-0.00269409,0.00009449,0.015
 12915,0.00137461,0.00051505,-0.01219960,-0.00504048,-0.00014003,0.0074
 8628,0.01148816,0.00011404,0.01095169,-0.00074201,0.00087024,-0.020813
 16,-0.02811815,0.00486292,-0.14943856,-0.00975914,0.00162414,-0.036090
 63,-0.00109260,-0.00314945,0.00016488,0.00002618,-0.00000493,-0.000018
 41,-0.00004524,0.00002257,-0.00002424,-0.00005104,-0.00000606,-0.00000
 249,0.00003950,-0.00000499,-0.00003669,0.00001930,-0.00000583,0.000067
 21,-0.00006124,0.00002518,0.00034789,-0.00015248,0.00009910,-0.0002159
 5,-0.00052721,0.00020122,0.00022973,-0.00072391,0.00001244,-0.00013530
 ,-0.00023630,0.00005934,0.00087273,0.00067953,-0.00010961,0.00620782,0
 .01084157,-0.00047840,-0.00044559,-0.00277258,-0.00008629,-0.00351271,
 -0.00255035,0.00203656,-0.00398007,-0.00215416,-0.00062423,0.72326383,
 0.00000344,0.00006068,-0.00001183,0.00002734,-0.00009041,0.00001812,-0
 .00036311,0.00023235,-0.00000303,0.00111351,0.00019603,-0.00001384,-0.
 00261230,0.00157290,-0.00020766,0.00067153,-0.00084631,0.00006765,0.00
 377605,0.00027952,0.00003351,-0.00156655,-0.00539027,-0.00044661,0.008
 57648,-0.00179392,0.00140508,0.00080947,-0.00884191,0.00191975,-0.0395
 2825,-0.00273479,0.00176853,-0.00548876,-0.11480186,-0.00148335,0.0130
 9995,0.01653937,-0.00263481,0.00003709,0.00000103,-0.00000156,0.000001
 41,-0.00001209,0.00001789,-0.00000238,-0.00001134,-0.00000935,-0.00000
 094,0.00000632,-0.00000985,-0.00001316,-0.00000277,0.00001588,0.000018
 90,-0.00001328,-0.00000308,0.00010619,-0.00004627,0.00004773,-0.000048
 12,-0.00010267,0.00000493,0.00011875,-0.00014752,-0.00006764,0.0010687
 0,0.00111454,0.00028561,-0.00177892,-0.00020524,-0.00014160,0.02049193
 ,0.00541442,-0.00435642,-0.00423288,-0.00028757,0.00103497,-0.00481240
 ,-0.00221705,0.00349083,-0.00772783,-0.00102591,0.00012780,-0.03421237
 ,0.82825874,0.00000257,-0.00000813,0.00000187,-0.00001648,0.00001210,0
 .00000814,0.00005088,-0.00004453,0.00007339,-0.00011763,0.00011973,0.0
 0006508,0.00027014,-0.00056661,-0.00017229,-0.00005165,0.00034795,-0.0
 0018473,-0.00045912,0.00027921,-0.00114060,-0.00043217,0.00141347,-0.0
 0118558,-0.00223452,-0.00077623,0.00757000,0.00105518,0.00112098,0.008
 06070,-0.00214090,-0.00322872,-0.00134140,0.00734698,-0.00351091,-0.07
 787276,0.00165876,0.00039417,-0.00434383,-0.00000091,0.00000294,0.0000
 0094,-0.00000446,0.00000344,-0.00000997,-0.00000094,-0.00000165,0.0000
 0370,0.00000173,-0.00000178,0.00000404,0.00000463,0.00000672,-0.000014
 07,-0.00001696,-0.00001344,-0.00000141,-0.00001188,0.00000954,-0.00003
 077,0.00003623,-0.00000834,0.00007286,0.00010532,0.00003425,0.00014108
 ,-0.00012110,-0.00005040,0.00153914,-0.00002351,0.00002766,0.00081253,
 -0.00938213,-0.00210356,0.00202942,0.00195834,-0.00003849,-0.00077439,
 0.00341687,0.00224332,-0.00307967,0.00401614,-0.00196645,-0.00300582,0
 .05925999,-0.36505387,0.47982026,-0.00001775,-0.00010007,0.00001278,-0
 .00002296,0.00017326,-0.00004037,0.00056519,-0.00030430,-0.00005491,-0
 .00185823,-0.00061375,0.00023536,0.00397037,-0.00125043,0.00018078,-0.
 00108623,0.00057899,-0.00004089,-0.00535860,-0.00067378,-0.00029892,0.
 00376499,0.00346845,0.00005217,-0.00428218,-0.00101367,0.00125613,-0.0
 0150303,0.00073658,0.00053870,-0.00305351,0.00353710,-0.00282541,-0.05
 459886,0.03124407,-0.02494309,-0.00054624,-0.00748910,-0.00083062,-0.0
 0007588,-0.00001406,0.00000234,0.00001040,0.00002058,-0.00000662,0.000
 01263,0.00002349,0.00000007,-0.00000110,-0.00002041,-0.00000042,0.0000
 1386,-0.00001114,0.00000774,-0.00001994,0.00002810,-0.00001748,-0.0001
 3734,0.00007015,-0.00003781,0.00008191,0.00022127,-0.00009947,-0.00013
 003,0.00025975,-0.00001543,-0.00033536,-0.00056280,0.00024486,-0.00027
 533,-0.00026192,-0.00006713,0.00028942,-0.00422179,-0.00230449,-0.0004
 8988,0.00125874,0.00044822,0.00004132,0.00120639,-0.00011608,0.0004505
 8,0.00128842,0.00146806,-0.35039100,0.18209750,-0.14175786,0.37531937,
 0.00000578,0.00001484,-0.00000032,-0.00000332,-0.00003484,0.00000567,-
 0.00007165,0.00001366,0.00003476,0.00029345,0.00017899,-0.00009754,-0.
 00075545,0.00007093,-0.00004346,0.00012998,0.00000450,-0.00000885,0.00
 131919,0.00063185,0.00009696,-0.00210238,-0.00005143,0.00028058,-0.000
 21074,0.00122031,-0.00078018,0.00168906,0.00214099,-0.00050365,-0.0052
 3768,-0.00868540,-0.00017819,0.01678203,0.01311850,0.00722239,-0.00176
 760,0.00115240,-0.00000276,0.00001373,0.00000387,-0.00000017,-0.000003
 87,-0.00000276,-0.00000435,-0.00000390,-0.00000342,0.00000363,0.000000
 79,0.00000661,0.00000579,-0.00000036,0.00000502,-0.00000940,0.00000446
 ,-0.00000355,0.00000637,0.00001969,-0.00000752,-0.00000501,-0.00000588
 ,-0.00006094,0.00004388,0.00012274,-0.00011172,0.00003115,-0.00001538,
 -0.00005166,-0.00003034,0.00026947,0.00003840,-0.00009836,-0.00561957,
 -0.00145693,0.00374390,0.00130937,-0.00003702,-0.00062656,0.00210755,0
 .00025829,-0.00163804,0.00174521,0.00015747,-0.00091900,0.18239896,-0.
 27826033,0.14239866,-0.23193385,0.33907487,-0.00000384,-0.00001310,0.0
 0000035,0.00000168,0.00002414,-0.00001070,0.00006269,-0.00002803,-0.00
 003211,-0.00023039,-0.00013763,0.00004543,0.00046453,0.00008564,0.0000
 1734,-0.00018972,-0.00009353,0.00006380,-0.00059336,-0.00020895,0.0001
 0114,0.00089183,-0.00030372,0.00011504,-0.00000262,0.00067267,-0.00077
 559,-0.00138409,-0.00002968,-0.00042668,0.00253495,0.00327202,0.000294
 94,-0.01898581,0.00871117,0.01356753,-0.00096086,-0.00215682,0.0026358
 5,-0.00001151,-0.00000328,-0.00000052,0.00000326,0.00000159,0.00000359
 ,0.00000230,0.00000494,-0.00000146,-0.00000100,-0.00000232,-0.00000122
 ,0.00000044,-0.00000543,0.00000763,0.00000053,0.00000872,-0.00000400,-
 0.00001321,0.00000595,0.00000633,0.00000347,0.00003625,-0.00004437,-0.
 00005483,0.00003159,-0.00005138,-0.00005090,-0.00009129,-0.00040985,-0
 .00003117,-0.00003510,-0.00005793,0.00436248,0.00059295,-0.00235521,-0
 .00098440,0.00024623,0.00047217,-0.00172782,-0.00031681,0.00104515,-0.
 00175963,0.00058637,0.00143241,-0.14164165,0.14146489,-0.18337759,0.18
 617570,-0.22001280,0.18959230,-0.00001079,-0.00007744,0.00001211,-0.00
 002336,0.00012814,-0.00002861,0.00044711,-0.00025379,-0.00003155,-0.00
 143382,-0.00035380,0.00011982,0.00321482,-0.00151565,0.00021485,-0.000
 73589,0.00082848,-0.00004098,-0.00449553,-0.00004045,-0.00013289,0.003
 67556,0.00011151,0.00025643,-0.00048908,-0.00100710,-0.00021479,-0.002
 74234,-0.00157438,-0.00123881,-0.00502708,0.00481317,0.00117504,-0.016
 34047,-0.04721619,0.02469372,0.00193990,-0.00132374,0.00116474,-0.0000
 5634,-0.00000910,0.00000213,0.00000549,0.00001644,-0.00001036,0.000007
 95,0.00001756,0.00000311,0.00000033,-0.00001343,0.00000396,0.00001304,
 -0.00000505,-0.00000194,-0.00001725,0.00002283,-0.00000856,-0.00011553
 ,0.00005519,-0.00003848,0.00007619,0.00015772,-0.00004933,0.00003636,0
 .00017924,-0.00000920,0.00000032,-0.00015116,-0.00006204,-0.00082376,-
 0.00029832,-0.00023319,-0.00287309,-0.00506776,-0.00084342,0.00042089,
 0.00085129,0.00005778,-0.00275936,0.00489815,-0.00137122,-0.00056503,0
 .00458683,0.00399891,-0.18255057,-0.12913024,0.07698290,0.04309046,0.0
 4162465,-0.02568514,0.16794918,-0.00000509,-0.00005937,0.00000951,-0.0
 0002657,0.00009462,-0.00001783,0.00034014,-0.00021038,-0.00001599,-0.0
 0108136,-0.00012593,0.00005531,0.00272592,-0.00195472,0.00019462,-0.00
 044986,0.00112363,-0.00004840,-0.00434705,0.00004417,-0.00006081,0.003
 24569,0.00152329,0.00030871,-0.00305195,-0.00164444,-0.00092916,-0.002
 48992,0.00102632,-0.00171531,-0.00040556,0.00307995,-0.00020090,-0.032
 40078,-0.01772384,0.02259806,0.00425123,-0.00269386,0.00134132,-0.0000
 3750,-0.00000226,0.00000113,0.,0.00001130,-0.00001363,0.00000286,0.000
 01228,0.00000734,0.00000177,-0.00000555,0.00000814,0.00001277,-0.00000
 035,-0.00001033,-0.00002342,0.00001400,0.00000162,-0.00010386,0.000040
 44,-0.00003963,0.00006783,0.00011598,-0.00001398,0.00004898,0.00017229
 ,0.00002112,-0.00022179,-0.00026131,-0.00008990,-0.00027421,-0.0001458
 5,-0.00000196,-0.01377034,-0.00539315,0.00268862,0.00280282,0.00063512
 ,-0.00064483,0.00741408,-0.00088839,-0.00150897,0.01026197,-0.00288968
 ,-0.00404487,-0.12636404,-0.43409211,0.22714557,0.02351881,-0.07193848
 ,0.06851395,0.12992203,0.53097933,0.00000064,0.00002072,-0.00000516,0.
 00001177,-0.00003272,0.00000227,-0.00012302,0.00007930,-0.00001241,0.0
 0037507,0.00001755,-0.00000001,-0.00087655,0.00063037,-0.00009007,0.00
 016802,-0.00036706,0.00006602,0.00126478,-0.00013048,0.00014323,-0.000
 76068,-0.00098304,0.00012878,0.00152433,0.00101367,-0.00052927,-0.0000
 1243,0.00049247,-0.00039874,0.00315931,-0.00094243,0.00216920,0.013591
 55,0.02279754,0.00898694,-0.00342099,-0.00013719,0.00020873,0.00001257
 ,0.00000021,-0.00000089,0.00000147,-0.00000543,0.00000764,-0.00000105,
 -0.00000282,-0.00000241,-0.00000017,0.00000464,-0.00000271,-0.00000581
 ,-0.00000236,0.00000783,0.00000722,-0.00000290,0.00000001,0.00003827,-
 0.00001682,0.00002044,-0.00002665,-0.00002827,-0.00001778,-0.00007442,
 -0.00004249,-0.00003578,0.00001619,0.00004794,-0.00015450,0.00034511,0
 .00007902,-0.00026617,0.00276920,0.00155408,-0.00473234,-0.00068829,-0
 .00024101,0.00072572,-0.00326383,0.00034705,0.00271505,0.00345125,-0.0
 0347992,-0.00205498,0.07899567,0.22359985,-0.21959794,-0.01647596,0.07
 159752,-0.02183150,-0.07937218,-0.31498742,0.23490817,-0.00000410,-0.0
 0000852,0.00000150,-0.00000956,0.00002000,-0.00000343,0.00001091,-0.00
 004778,-0.00000209,-0.00017818,0.00008028,0.00000896,0.00003987,-0.000
 51291,-0.00001663,0.00004807,0.00015067,0.00000601,-0.00089139,0.00116
 377,-0.00001008,-0.00329331,-0.00258425,-0.00035097,-0.00041835,-0.000
 99837,0.00010603,-0.01501683,0.01905659,-0.00142074,-0.22156046,0.1500
 4018,-0.00963564,0.00896760,-0.00427387,-0.00000717,0.00028768,-0.0021
 3252,-0.00000220,-0.00000361,0.00000111,-0.00000010,0.00000052,0.00000
 026,0.00000035,0.00000058,0.00000008,-0.00000038,0.00000033,-0.0000019
 6,-0.00000217,0.00000041,-0.00000045,0.00000187,-0.00000038,0.00000214
 ,-0.00000022,-0.00000765,0.00000345,-0.00000203,0.00000330,0.00001580,
 0.00000010,-0.00002495,0.00006825,-0.00001321,-0.00000850,0.00007594,-
 0.00000453,0.00101897,0.00001709,0.00026155,0.00074371,0.00009409,-0.0
 0010788,0.00008212,-0.00032277,-0.00002757,-0.00012137,-0.00006894,0.0
 0008056,-0.00017260,-0.00002863,-0.00003866,0.00029762,-0.00050001,0.0
 0060557,-0.00342704,-0.00210447,-0.00019191,0.00018167,0.00043641,-0.0
 0063039,0.23345491,-0.00000267,-0.00000636,0.00000069,-0.00000606,0.00
 001420,-0.00000185,0.00001426,-0.00003290,0.00000086,-0.00012892,0.000
 03474,0.00000698,-0.00000081,-0.00022255,-0.00003288,0.00000231,0.0000
 5025,0.00000333,-0.00045586,0.00068433,-0.00000712,-0.00291635,-0.0002
 0479,0.00032478,-0.00090664,-0.00018658,-0.00005532,-0.00933135,0.0119
 1760,-0.00047601,0.14734712,-0.19222997,0.01089987,0.02287201,-0.01538
 440,0.00151617,-0.00273660,-0.00492199,0.00044850,-0.00000388,0.000000
 16,0.00000011,0.00000064,0.00000056,0.00000007,0.00000071,0.00000038,-
 0.00000024,0.00000019,-0.00000149,-0.00000182,0.00000062,-0.00000021,0
 .00000146,-0.00000005,0.00000126,0.00000014,-0.00000527,0.00000284,-0.
 00000180,0.00000442,0.00001275,-0.00000254,0.00001098,0.00001297,-0.00
 000158,0.00006059,0.00001825,-0.00003254,0.00028127,0.00065068,-0.0002
 5450,0.00162821,0.00071623,-0.00002403,0.00021383,-0.00067950,-0.00013
 047,-0.00026635,-0.00022445,0.00024219,-0.00032695,-0.00008868,-0.0001
 0971,0.00372749,-0.00275227,0.00181341,-0.00126058,0.00261452,-0.00082
 057,-0.00017563,0.00115695,-0.00087959,-0.15764066,0.19904747,0.000000
 25,0.00000178,0.00000033,0.00000005,-0.00000052,0.00000625,-0.00001578
 ,0.00000246,0.00001669,0.00004141,0.00001815,-0.00002404,-0.00007614,0
 .00003832,-0.00022766,0.00002333,-0.00002054,0.00002958,0.00004396,-0.
 00007044,-0.00000307,0.00002647,-0.00014528,0.00749484,0.00037655,0.00
 003158,-0.00112441,-0.00040601,-0.00014765,0.00436438,-0.01015338,0.01
 113767,-0.03977358,0.00058663,0.00115673,0.00518801,-0.00006294,0.0003
 8907,0.00490385,0.00000172,0.00000055,0.00000035,-0.00000094,0.0000004
 9,-0.00000084,0.00000018,-0.00000175,-0.00000049,0.00000014,-0.0000015
 9,-0.00000150,-0.00000008,0.00000124,-0.00000184,-0.00000128,-0.000001
 82,-0.00000028,0.00000484,0.00000021,-0.00000156,-0.00000060,-0.000000
 86,0.00001309,-0.00001342,0.00002191,0.00006945,-0.00003817,0.00000436
 ,-0.00039044,0.00015734,-0.00019885,-0.00445449,0.00021754,0.00002268,
 0.00089741,-0.00017551,0.00026172,-0.00015838,-0.00013287,-0.00009992,
 -0.00000795,-0.00008097,-0.00005176,-0.00011198,-0.00171510,-0.0008585
 3,-0.00407033,-0.00068995,-0.00051229,-0.00002089,0.00068719,0.0014488
 8,-0.00035735,0.01139552,-0.01242599,0.02774684\\0.00000027,-0.0000003
 2,0.00000033,0.00000033,0.00000006,-0.00000018,-0.00000007,0.00000111,
 0.00000181,0.00000462,-0.00000176,-0.00000439,-0.00000744,0.00000390,0
 .00000651,-0.00000027,-0.00000053,-0.00000241,0.00000169,-0.00000577,-
 0.00000265,0.00000323,-0.00000089,-0.00000080,0.00000045,0.00000253,0.
 00000112,-0.00000498,0.00000065,-0.00000086,0.00000280,0.00000343,0.00
 000004,-0.00000015,-0.00000265,0.00000009,0.00000418,0.00000149,-0.000
 00160,0.00000003,0.,0.00000040,-0.00000004,0.00000012,0.00000048,0.000
 00017,0.00000016,0.00000027,0.00000012,-0.00000014,0.00000056,0.000000
 05,-0.00000035,0.00000006,0.00000018,0.00000029,-0.00000005,-0.0000001
 5,-0.00000011,0.00000037,-0.00000084,0.00000088,0.00000057,-0.00000062
 ,0.00000028,0.00000125,-0.00000020,-0.00000024,0.00000034,0.00000032,-
 0.00000002,-0.00000019,-0.00000838,0.00000371,0.00000034,0.00000437,-0
 .00000448,0.00000165,0.00000245,-0.00000003,-0.00000422,0.00000009,-0.
 00000032,0.00000174,-0.00000249,-0.00000903,0.00000589,-0.00000215,0.0
 0000202,-0.00000195,0.00000147,0.00000661,-0.00000433,0.00000098,-0.00
 000061,-0.00000019\\\@


 I DO NOT KNOW WHAT I MAY APPEAR TO THE WORLD; BUT TO MYSELF
 I SEEM TO HAVE BEEN ONLY LIKE A BOY PLAYING ON THE SEASHORE,
 AND DIVERTING MYSELF IN NOW AND THEN FINDING A SMOOTHER PEBBLE
 OR A PRETTIER SHELL THAN ORDINARY, WHILST THE GREAT OCEAN OF
 TRUTH LAY ALL UNDISCOVERED BEFORE ME.
                                          -- NEWTON (1642-1726)
 Job cpu time:       0 days  3 hours 33 minutes 55.4 seconds.
 File lengths (MBytes):  RWF=    579 Int=      0 D2E=      0 Chk=     13 Scr=      1
 Normal termination of Gaussian 09 at Tue Oct 30 17:15:17 2018.
WARNING: pbs_rusage is deprecated and values produced may not be accurate


=============================================================================
                                     Resource usage:
                                       CPU time:              29:01:50
   JobId:    1827571.r-man2            Elapsed time:          07:16:44
   Project:             q95            Requested time:        40:00:00
   Service Units:     29.12 
                                       Max physical memory:      864MB
                                       Max virtual memory:      1716MB
                                       Requested memory:           0MB

                                       Number of cpus:               4

                                       Max jobfs disk use:       0.6GB
                                       Requested jobfs:         20.0GB
=============================================================================

