 Entering Gaussian System, Link 0=/apps/gaussian/g09e01/g09/g09
 AtFile(1): /home/507/hio507/Basis/6-31pGd.gbs
 Initial command:
 /apps/gaussian/g09e01/g09/l1.exe "/jobfs/local/1827577.r-man2/Gau-27321.inp" -scrdir="/jobfs/local/1827577.r-man2/"
 Entering Link 1 = /apps/gaussian/g09e01/g09/l1.exe PID=     27322.
  
 Copyright (c) 1988,1990,1992,1993,1995,1998,2003,2009,2015,
            Gaussian, Inc.  All Rights Reserved.
  
 This is part of the Gaussian(R) 09 program.  It is based on
 the Gaussian(R) 03 system (copyright 2003, Gaussian, Inc.),
 the Gaussian(R) 98 system (copyright 1998, Gaussian, Inc.),
 the Gaussian(R) 94 system (copyright 1995, Gaussian, Inc.),
 the Gaussian 92(TM) system (copyright 1992, Gaussian, Inc.),
 the Gaussian 90(TM) system (copyright 1990, Gaussian, Inc.),
 the Gaussian 88(TM) system (copyright 1988, Gaussian, Inc.),
 the Gaussian 86(TM) system (copyright 1986, Carnegie Mellon
 University), and the Gaussian 82(TM) system (copyright 1983,
 Carnegie Mellon University). Gaussian is a federally registered
 trademark of Gaussian, Inc.
  
 This software contains proprietary and confidential information,
 including trade secrets, belonging to Gaussian, Inc.
  
 This software is provided under written license and may be
 used, copied, transmitted, or stored only in accord with that
 written license.
  
 The following legend is applicable only to US Government
 contracts under FAR:
  
                    RESTRICTED RIGHTS LEGEND
  
 Use, reproduction and disclosure by the US Government is
 subject to restrictions as set forth in subparagraphs (a)
 and (c) of the Commercial Computer Software - Restricted
 Rights clause in FAR 52.227-19.
  
 Gaussian, Inc.
 340 Quinnipiac St., Bldg. 40, Wallingford CT 06492
  
  
 ---------------------------------------------------------------
 Warning -- This program may not be used in any manner that
 competes with the business of Gaussian, Inc. or will provide
 assistance to any competitor of Gaussian, Inc.  The licensee
 of this program is prohibited from giving any competitor of
 Gaussian, Inc. access to this program.  By using this program,
 the user acknowledges that Gaussian, Inc. is engaged in the
 business of creating and licensing software in the field of
 computational chemistry and represents and warrants to the
 licensee that it is not a competitor of Gaussian, Inc. and that
 it will not use this program in any manner prohibited above.
 ---------------------------------------------------------------
  

 Cite this work as:
 Gaussian 09, Revision E.01,
 M. J. Frisch, G. W. Trucks, H. B. Schlegel, G. E. Scuseria, 
 M. A. Robb, J. R. Cheeseman, G. Scalmani, V. Barone, B. Mennucci, 
 G. A. Petersson, H. Nakatsuji, M. Caricato, X. Li, H. P. Hratchian, 
 A. F. Izmaylov, J. Bloino, G. Zheng, J. L. Sonnenberg, M. Hada, 
 M. Ehara, K. Toyota, R. Fukuda, J. Hasegawa, M. Ishida, T. Nakajima, 
 Y. Honda, O. Kitao, H. Nakai, T. Vreven, J. A. Montgomery, Jr., 
 J. E. Peralta, F. Ogliaro, M. Bearpark, J. J. Heyd, E. Brothers, 
 K. N. Kudin, V. N. Staroverov, T. Keith, R. Kobayashi, J. Normand, 
 K. Raghavachari, A. Rendell, J. C. Burant, S. S. Iyengar, J. Tomasi, 
 M. Cossi, N. Rega, J. M. Millam, M. Klene, J. E. Knox, J. B. Cross, 
 V. Bakken, C. Adamo, J. Jaramillo, R. Gomperts, R. E. Stratmann, 
 O. Yazyev, A. J. Austin, R. Cammi, C. Pomelli, J. W. Ochterski, 
 R. L. Martin, K. Morokuma, V. G. Zakrzewski, G. A. Voth, 
 P. Salvador, J. J. Dannenberg, S. Dapprich, A. D. Daniels, 
 O. Farkas, J. B. Foresman, J. V. Ortiz, J. Cioslowski, 
 and D. J. Fox, Gaussian, Inc., Wallingford CT, 2013.
 
 ******************************************
 Gaussian 09:  ES64L-G09RevE.01 30-Nov-2015
                30-Oct-2018 
 ******************************************
 %chk=3TMF4Nitro_a1.M062X_6-31pGd_opt_water.chk
 %mem=196608000
 %nproc=4
 Will use up to    4 processors via shared memory.
 ----------------------------------------------------------------------
 # M062X/Gen 6D SCF=Tight INT(grid=ultrafine) OPT IOP(2/17=4) SCRF=(SMD
 ,Solvent=h2o) maxdisk=2684354560
 ----------------------------------------------------------------------
 1/14=-1,18=20,19=15,26=4,38=1/1,3;
 2/9=110,12=2,17=4,18=5,40=1/2;
 3/5=7,8=2,11=2,16=1,25=1,30=1,70=32201,71=1,72=1,74=-55,75=-5/1,2,3;
 4//1;
 5/5=2,32=2,38=5,53=1/2;
 6/7=2,8=2,9=2,10=2,28=1/1;
 7//1,2,3,16;
 1/14=-1,18=20,19=15,26=4/3(2);
 2/9=110,17=4/2;
 99//99;
 2/9=110,17=4/2;
 3/5=7,6=1,8=2,11=2,16=1,25=1,30=1,70=32205,71=1,72=1,74=-55,75=-5,82=7/1,2,3;
 4/5=5,16=3,69=1/1;
 5/5=2,32=2,38=5,53=1/2;
 7//1,2,3,16;
 1/14=-1,18=20,19=15,26=4/3(-5);
 2/9=110,17=4/2;
 6/7=2,8=2,9=2,10=2,19=2,28=1/1;
 99/9=1/99;
 -------------------------------------
 3TMF4Nitro_a1.M062X_6-31pGd_opt_water
 -------------------------------------
 Symbolic Z-matrix:
 Charge = -1 Multiplicity = 1
 C                    -2.03683   1.83126  -0.08111 
 C                    -0.67396   1.14733  -0.03117 
 C                     0.4666    2.17222  -0.04985 
 N                     1.75849   1.50968  -0.00004 
 C                     2.93005   2.20709  -0.00445 
 O                     2.89806   3.42626  -0.05236 
 N                     4.11671   1.52508   0.04624 
 C                     5.4559    2.05651   0.05278 
 C                     5.77938   3.43207  -0.00221 
 C                     6.51162   1.13946   0.11845 
 C                     7.83206   1.56439   0.13018 
 C                     8.17724   2.92102   0.07703 
 C                     7.1222    3.88695   0.00839 
 H                    -2.83858   1.06303  -0.0661 
 H                    -2.13494   2.42959  -1.01184 
 H                    -2.16677   2.49794   0.79787 
 H                    -0.57802   0.47079  -0.90831 
 H                    -0.61017   0.5395    0.89768 
 H                     0.36664   2.8471    0.82886 
 H                     0.40011   2.77737  -0.98095 
 H                     1.78953   0.47869   0.04068 
 H                     5.00713   4.17161  -0.05422 
 H                     6.31593   0.07581   0.1621 
 C                     7.38258   5.38625  -0.05389 
 F                     6.2127    6.1246   -0.11532 
 F                     8.1205    5.68823  -1.18448 
 F                     8.06697   5.79159   1.07803 
 N                     9.5774    3.24382   0.09552 
 O                     10.38738   2.36721   0.15457 
 O                     9.96235   4.37113   0.05384 
 H                     8.58371   0.85897   0.1796 
 

 GradGradGradGradGradGradGradGradGradGradGradGradGradGradGradGradGradGrad
 Berny optimization.
 Initialization pass.
                           ----------------------------
                           !    Initial Parameters    !
                           ! (Angstroms and Degrees)  !
 --------------------------                            --------------------------
 ! Name  Definition              Value          Derivative Info.                !
 --------------------------------------------------------------------------------
 ! R1    R(1,2)                  1.5257         estimate D2E/DX2                !
 ! R2    R(1,14)                 1.1105         estimate D2E/DX2                !
 ! R3    R(1,15)                 1.1108         estimate D2E/DX2                !
 ! R4    R(1,16)                 1.1108         estimate D2E/DX2                !
 ! R5    R(2,3)                  1.5335         estimate D2E/DX2                !
 ! R6    R(2,17)                 1.1119         estimate D2E/DX2                !
 ! R7    R(2,18)                 1.1119         estimate D2E/DX2                !
 ! R8    R(3,4)                  1.4527         estimate D2E/DX2                !
 ! R9    R(3,19)                 1.1125         estimate D2E/DX2                !
 ! R10   R(3,20)                 1.1125         estimate D2E/DX2                !
 ! R11   R(4,5)                  1.3634         estimate D2E/DX2                !
 ! R12   R(4,21)                 1.0323         estimate D2E/DX2                !
 ! R13   R(5,6)                  1.2205         estimate D2E/DX2                !
 ! R14   R(5,7)                  1.3696         estimate D2E/DX2                !
 ! R15   R(7,8)                  1.4408         estimate D2E/DX2                !
 ! R16   R(8,9)                  1.4142         estimate D2E/DX2                !
 ! R17   R(8,10)                 1.3999         estimate D2E/DX2                !
 ! R18   R(9,13)                 1.4178         estimate D2E/DX2                !
 ! R19   R(9,22)                 1.0705         estimate D2E/DX2                !
 ! R20   R(10,11)                1.3872         estimate D2E/DX2                !
 ! R21   R(10,23)                1.0824         estimate D2E/DX2                !
 ! R22   R(11,12)                1.4009         estimate D2E/DX2                !
 ! R23   R(11,31)                1.032          estimate D2E/DX2                !
 ! R24   R(12,13)                1.4321         estimate D2E/DX2                !
 ! R25   R(12,28)                1.437          estimate D2E/DX2                !
 ! R26   R(13,24)                1.523          estimate D2E/DX2                !
 ! R27   R(24,25)                1.3848         estimate D2E/DX2                !
 ! R28   R(24,26)                1.3835         estimate D2E/DX2                !
 ! R29   R(24,27)                1.3834         estimate D2E/DX2                !
 ! R30   R(28,29)                1.195          estimate D2E/DX2                !
 ! R31   R(28,30)                1.192          estimate D2E/DX2                !
 ! A1    A(2,1,14)             109.5345         estimate D2E/DX2                !
 ! A2    A(2,1,15)             110.3523         estimate D2E/DX2                !
 ! A3    A(2,1,16)             110.3426         estimate D2E/DX2                !
 ! A4    A(14,1,15)            108.6743         estimate D2E/DX2                !
 ! A5    A(14,1,16)            108.6652         estimate D2E/DX2                !
 ! A6    A(15,1,16)            109.2322         estimate D2E/DX2                !
 ! A7    A(1,2,3)              111.3705         estimate D2E/DX2                !
 ! A8    A(1,2,17)             108.9062         estimate D2E/DX2                !
 ! A9    A(1,2,18)             108.8841         estimate D2E/DX2                !
 ! A10   A(3,2,17)             109.4431         estimate D2E/DX2                !
 ! A11   A(3,2,18)             109.4425         estimate D2E/DX2                !
 ! A12   A(17,2,18)            108.7499         estimate D2E/DX2                !
 ! A13   A(2,3,4)              110.8667         estimate D2E/DX2                !
 ! A14   A(2,3,19)             109.2077         estimate D2E/DX2                !
 ! A15   A(2,3,20)             109.2261         estimate D2E/DX2                !
 ! A16   A(4,3,19)             109.2382         estimate D2E/DX2                !
 ! A17   A(4,3,20)             109.2649         estimate D2E/DX2                !
 ! A18   A(19,3,20)            109.0098         estimate D2E/DX2                !
 ! A19   A(3,4,5)              122.0558         estimate D2E/DX2                !
 ! A20   A(3,4,21)             118.9206         estimate D2E/DX2                !
 ! A21   A(5,4,21)             119.0236         estimate D2E/DX2                !
 ! A22   A(4,5,6)              119.245          estimate D2E/DX2                !
 ! A23   A(4,5,7)              119.318          estimate D2E/DX2                !
 ! A24   A(6,5,7)              121.437          estimate D2E/DX2                !
 ! A25   A(5,7,8)              128.4487         estimate D2E/DX2                !
 ! A26   A(7,8,9)              124.8351         estimate D2E/DX2                !
 ! A27   A(7,8,10)             117.357          estimate D2E/DX2                !
 ! A28   A(9,8,10)             117.808          estimate D2E/DX2                !
 ! A29   A(8,9,13)             121.8995         estimate D2E/DX2                !
 ! A30   A(8,9,22)             120.5874         estimate D2E/DX2                !
 ! A31   A(13,9,22)            117.5131         estimate D2E/DX2                !
 ! A32   A(8,10,11)            121.1693         estimate D2E/DX2                !
 ! A33   A(8,10,23)            120.6157         estimate D2E/DX2                !
 ! A34   A(11,10,23)           118.215          estimate D2E/DX2                !
 ! A35   A(10,11,12)           122.0652         estimate D2E/DX2                !
 ! A36   A(10,11,31)           118.9676         estimate D2E/DX2                !
 ! A37   A(12,11,31)           118.9672         estimate D2E/DX2                !
 ! A38   A(11,12,13)           118.2608         estimate D2E/DX2                !
 ! A39   A(11,12,28)           117.2027         estimate D2E/DX2                !
 ! A40   A(13,12,28)           124.5366         estimate D2E/DX2                !
 ! A41   A(9,13,12)            118.7972         estimate D2E/DX2                !
 ! A42   A(9,13,24)            118.5191         estimate D2E/DX2                !
 ! A43   A(12,13,24)           122.6837         estimate D2E/DX2                !
 ! A44   A(13,24,25)           112.4747         estimate D2E/DX2                !
 ! A45   A(13,24,26)           109.8457         estimate D2E/DX2                !
 ! A46   A(13,24,27)           109.8493         estimate D2E/DX2                !
 ! A47   A(25,24,26)           107.3364         estimate D2E/DX2                !
 ! A48   A(25,24,27)           107.338          estimate D2E/DX2                !
 ! A49   A(26,24,27)           109.9268         estimate D2E/DX2                !
 ! A50   A(12,28,29)           119.7545         estimate D2E/DX2                !
 ! A51   A(12,28,30)           121.7812         estimate D2E/DX2                !
 ! A52   A(29,28,30)           118.4643         estimate D2E/DX2                !
 ! D1    D(14,1,2,3)          -179.9962         estimate D2E/DX2                !
 ! D2    D(14,1,2,17)           59.2167         estimate D2E/DX2                !
 ! D3    D(14,1,2,18)          -59.2243         estimate D2E/DX2                !
 ! D4    D(15,1,2,3)            60.4015         estimate D2E/DX2                !
 ! D5    D(15,1,2,17)          -60.3856         estimate D2E/DX2                !
 ! D6    D(15,1,2,18)         -178.8266         estimate D2E/DX2                !
 ! D7    D(16,1,2,3)           -60.4111         estimate D2E/DX2                !
 ! D8    D(16,1,2,17)          178.8017         estimate D2E/DX2                !
 ! D9    D(16,1,2,18)           60.3607         estimate D2E/DX2                !
 ! D10   D(1,2,3,4)            179.9185         estimate D2E/DX2                !
 ! D11   D(1,2,3,19)            59.5065         estimate D2E/DX2                !
 ! D12   D(1,2,3,20)           -59.6244         estimate D2E/DX2                !
 ! D13   D(17,2,3,4)           -59.6097         estimate D2E/DX2                !
 ! D14   D(17,2,3,19)          179.9783         estimate D2E/DX2                !
 ! D15   D(17,2,3,20)           60.8474         estimate D2E/DX2                !
 ! D16   D(18,2,3,4)            59.4747         estimate D2E/DX2                !
 ! D17   D(18,2,3,19)          -60.9374         estimate D2E/DX2                !
 ! D18   D(18,2,3,20)          179.9318         estimate D2E/DX2                !
 ! D19   D(2,3,4,5)           -179.953          estimate D2E/DX2                !
 ! D20   D(2,3,4,21)            -0.001          estimate D2E/DX2                !
 ! D21   D(19,3,4,5)           -59.5591         estimate D2E/DX2                !
 ! D22   D(19,3,4,21)          120.3929         estimate D2E/DX2                !
 ! D23   D(20,3,4,5)            59.6129         estimate D2E/DX2                !
 ! D24   D(20,3,4,21)         -120.4351         estimate D2E/DX2                !
 ! D25   D(3,4,5,6)             -0.0399         estimate D2E/DX2                !
 ! D26   D(3,4,5,7)            179.8978         estimate D2E/DX2                !
 ! D27   D(21,4,5,6)          -179.9919         estimate D2E/DX2                !
 ! D28   D(21,4,5,7)            -0.0542         estimate D2E/DX2                !
 ! D29   D(4,5,7,8)           -179.9481         estimate D2E/DX2                !
 ! D30   D(6,5,7,8)             -0.0118         estimate D2E/DX2                !
 ! D31   D(5,7,8,9)             -0.3947         estimate D2E/DX2                !
 ! D32   D(5,7,8,10)           179.6091         estimate D2E/DX2                !
 ! D33   D(7,8,9,13)           179.976          estimate D2E/DX2                !
 ! D34   D(7,8,9,22)            -0.0494         estimate D2E/DX2                !
 ! D35   D(10,8,9,13)           -0.0278         estimate D2E/DX2                !
 ! D36   D(10,8,9,22)          179.9468         estimate D2E/DX2                !
 ! D37   D(7,8,10,11)         -179.9617         estimate D2E/DX2                !
 ! D38   D(7,8,10,23)            0.0034         estimate D2E/DX2                !
 ! D39   D(9,8,10,11)            0.0419         estimate D2E/DX2                !
 ! D40   D(9,8,10,23)         -179.993          estimate D2E/DX2                !
 ! D41   D(8,9,13,12)           -0.0074         estimate D2E/DX2                !
 ! D42   D(8,9,13,24)          179.9916         estimate D2E/DX2                !
 ! D43   D(22,9,13,12)        -179.9828         estimate D2E/DX2                !
 ! D44   D(22,9,13,24)           0.0162         estimate D2E/DX2                !
 ! D45   D(8,10,11,12)          -0.0206         estimate D2E/DX2                !
 ! D46   D(8,10,11,31)         179.9802         estimate D2E/DX2                !
 ! D47   D(23,10,11,12)       -179.9866         estimate D2E/DX2                !
 ! D48   D(23,10,11,31)          0.0143         estimate D2E/DX2                !
 ! D49   D(10,11,12,13)         -0.0158         estimate D2E/DX2                !
 ! D50   D(10,11,12,28)        179.9873         estimate D2E/DX2                !
 ! D51   D(31,11,12,13)        179.9834         estimate D2E/DX2                !
 ! D52   D(31,11,12,28)         -0.0135         estimate D2E/DX2                !
 ! D53   D(11,12,13,9)           0.029          estimate D2E/DX2                !
 ! D54   D(11,12,13,24)       -179.9699         estimate D2E/DX2                !
 ! D55   D(28,12,13,9)        -179.9743         estimate D2E/DX2                !
 ! D56   D(28,12,13,24)          0.0268         estimate D2E/DX2                !
 ! D57   D(11,12,28,29)         -0.0167         estimate D2E/DX2                !
 ! D58   D(11,12,28,30)       -179.9905         estimate D2E/DX2                !
 ! D59   D(13,12,28,29)        179.9866         estimate D2E/DX2                !
 ! D60   D(13,12,28,30)          0.0127         estimate D2E/DX2                !
 ! D61   D(9,13,24,25)          -0.0207         estimate D2E/DX2                !
 ! D62   D(9,13,24,26)        -119.5026         estimate D2E/DX2                !
 ! D63   D(9,13,24,27)         119.4655         estimate D2E/DX2                !
 ! D64   D(12,13,24,25)        179.9782         estimate D2E/DX2                !
 ! D65   D(12,13,24,26)         60.4964         estimate D2E/DX2                !
 ! D66   D(12,13,24,27)        -60.5356         estimate D2E/DX2                !
 --------------------------------------------------------------------------------
 Trust Radius=3.00D-01 FncErr=1.00D-07 GrdErr=1.00D-06
 Number of steps in this run=    159 maximum allowed number of steps=    186.
 GradGradGradGradGradGradGradGradGradGradGradGradGradGradGradGradGradGrad

                          Input orientation:                          
 ---------------------------------------------------------------------
 Center     Atomic      Atomic             Coordinates (Angstroms)
 Number     Number       Type             X           Y           Z
 ---------------------------------------------------------------------
      1          6           0       -2.036830    1.831260   -0.081110
      2          6           0       -0.673960    1.147330   -0.031170
      3          6           0        0.466600    2.172220   -0.049850
      4          7           0        1.758490    1.509680   -0.000040
      5          6           0        2.930050    2.207090   -0.004450
      6          8           0        2.898060    3.426260   -0.052360
      7          7           0        4.116710    1.525080    0.046240
      8          6           0        5.455900    2.056510    0.052780
      9          6           0        5.779380    3.432070   -0.002210
     10          6           0        6.511620    1.139460    0.118450
     11          6           0        7.832060    1.564390    0.130180
     12          6           0        8.177240    2.921020    0.077030
     13          6           0        7.122200    3.886950    0.008390
     14          1           0       -2.838580    1.063030   -0.066100
     15          1           0       -2.134940    2.429590   -1.011840
     16          1           0       -2.166770    2.497940    0.797870
     17          1           0       -0.578020    0.470790   -0.908310
     18          1           0       -0.610170    0.539500    0.897680
     19          1           0        0.366640    2.847100    0.828860
     20          1           0        0.400110    2.777370   -0.980950
     21          1           0        1.789530    0.478690    0.040680
     22          1           0        5.007130    4.171610   -0.054220
     23          1           0        6.315930    0.075810    0.162100
     24          6           0        7.382580    5.386250   -0.053890
     25          9           0        6.212700    6.124600   -0.115320
     26          9           0        8.120500    5.688230   -1.184480
     27          9           0        8.066970    5.791590    1.078030
     28          7           0        9.577400    3.243820    0.095520
     29          8           0       10.387380    2.367210    0.154570
     30          8           0        9.962350    4.371130    0.053840
     31          1           0        8.583710    0.858970    0.179600
 ---------------------------------------------------------------------
                    Distance matrix (angstroms):
                    1          2          3          4          5
     1  C    0.000000
     2  C    1.525670   0.000000
     3  C    2.526736   1.533501   0.000000
     4  N    3.809782   2.459488   1.452728   0.000000
     5  C    4.981669   3.756686   2.464115   1.363434   0.000000
     6  O    5.186327   4.237133   2.735803   2.230389   1.220530
     7  N    6.162469   4.806163   3.708278   2.358724   1.369624
     8  C    7.497311   6.197487   4.991697   3.738001   2.530982
     9  C    7.978844   6.845909   5.460323   4.456809   3.101494
    10  C    8.578718   7.187142   6.134915   4.768999   3.739329
    11  C    9.874758   8.517767   7.392690   6.075212   4.945795
    12  C   10.273257   9.027814   7.747953   6.572532   5.296163
    13  C    9.387316   8.263607   6.873187   5.866930   4.516217
    14  H    1.110498   2.166542   3.486371   4.619190   5.881306
    15  H    1.110803   2.177238   2.785619   4.126593   5.168991
    16  H    1.110834   2.177139   2.785563   4.125650   5.167774
    17  H    2.159459   1.111884   2.173258   2.713582   4.017245
    18  H    2.159174   1.111885   2.173251   2.712508   4.015950
    19  H    2.763448   2.170649   1.112469   2.100717   2.770395
    20  H    2.764690   2.170884   1.112463   2.101052   2.771167
    21  H    4.060210   2.553630   2.150903   1.032261   2.071277
    22  H    7.422623   6.435960   4.961249   4.200294   2.859384
    23  H    8.538698   7.074183   6.217276   4.780432   4.004282
    24  C   10.067968   9.103669   7.626322   6.830892   5.471245
    25  F    9.299929   8.497434   6.974472   6.414886   5.112237
    26  F   10.920851   9.964558   8.498935   7.703139   6.360155
    27  F   10.913963   9.960087   8.493384   7.700254   6.356756
    28  N   11.701148  10.464306   9.174755   8.009477   6.728452
    29  O   12.437997  11.129953   9.924801   8.672774   7.460744
    30  O   12.265785  11.114459   9.747575   8.688735   7.357969
    31  H   10.668139   9.264558   8.225858   6.858522   5.815082
                    6          7          8          9         10
     6  O    0.000000
     7  N    2.260379   0.000000
     8  C    2.903414   1.440795   0.000000
     9  C    2.881762   2.530500   1.414153   0.000000
    10  C    4.279772   2.426831   1.399942   2.409729   0.000000
    11  C    5.276764   3.716506   2.427820   2.778354   1.387179
    12  C    5.304880   4.293891   2.855461   2.452995   2.439254
    13  C    4.249622   3.822673   2.475689   1.417813   2.816669
    14  H    6.204360   6.971526   8.354612   8.937878   9.352333
    15  H    5.219678   6.404748   7.674207   8.041193   8.815043
    16  H    5.218924   6.402619   7.671709   8.040773   8.810308
    17  H    4.642261   4.905424   6.312400   7.071544   7.194745
    18  H    4.641512   4.903031   6.309705   7.071288   7.189370
    19  H    2.742273   4.052562   5.208445   5.507324   6.417281
    20  H    2.742826   4.054191   5.210494   5.506642   6.421992
    21  H    3.150502   2.551613   3.991482   4.964191   4.768731
    22  H    2.236901   2.794112   2.164831   1.070511   3.389283
    23  H    4.790965   2.636357   2.162123   3.402847   1.082382
    24  C    4.894127   5.058119   3.848460   2.528189   4.338606
    25  F    4.274557   5.057159   4.141299   2.729520   4.999562
    26  F    5.802765   5.905660   4.671220   3.459604   4.997742
    27  F    5.795705   5.905273   4.671150   3.459382   4.998222
    28  N    6.683467   5.725001   4.289323   3.803938   3.718584
    29  O    7.566659   6.327892   4.942306   4.732037   4.065734
    30  O    7.127991   6.501659   5.066119   4.287448   4.728150
    31  H    6.242708   4.518360   3.351624   3.810271   2.091882
                   11         12         13         14         15
    11  C    0.000000
    12  C    1.400864   0.000000
    13  C    2.431670   1.432076   0.000000
    14  H   10.684215  11.172328  10.353609   0.000000
    15  H   10.069452  10.381146   9.426527   1.804721   0.000000
    16  H   10.064488  10.377724   9.425370   1.804644   1.811280
    17  H    8.544230   9.144895   8.473717   2.483988   2.504319
    18  H    8.538776   9.141317   8.472650   2.483700   3.089277
    19  H    7.606970   7.847049   6.884188   3.775883   3.133751
    20  H    7.611820   7.850077   6.884508   3.776907   2.558981
    21  H    6.139945   6.838796   6.328874   4.666075   4.507247
    22  H    3.848614   3.410396   2.135058   8.439110   7.413557
    23  H    2.124980   3.401019   3.898524   9.210414   8.850741
    24  C    3.852600   2.593450   1.523016  11.097860  10.012127
    25  F    4.845422   3.762890   2.418589  10.370515   9.172783
    26  F    4.337924   3.041723   2.379948  11.947581  10.762090
    27  F    4.338528   3.042093   2.379994  11.941496  10.943015
    28  N    2.422374   1.437007   2.539530  12.607082  11.792715
    29  O    2.678577   2.279789   3.604494  13.291937  12.576681
    30  O    3.524451   2.299994   2.881484  13.222016  12.298361
    31  H    1.032007   2.104231   3.366599  11.426754  10.898433
                   16         17         18         19         20
    16  H    0.000000
    17  H    3.089420   0.000000
    18  H    2.503688   1.807583   0.000000
    19  H    2.557546   3.091438   2.506773   0.000000
    20  H    3.135467   2.506457   3.091598   1.811462   0.000000
    21  H    4.505887   2.550674   2.548864   2.873188   2.873699
    22  H    7.415664   6.754216   6.756656   4.905946   4.901772
    23  H    8.844609   6.987727   6.980469   6.596868   6.603175
    24  C   10.012887   9.394835   9.395772   7.513318   7.511364
    25  F    9.176170   8.871769   8.875307   6.768301   6.763096
    26  F   10.951511  10.147029  10.347435   8.499877   8.253421
    27  F   10.754350  10.343709  10.144444   8.247860   8.491505
    28  N   11.788773  10.574967  10.570875   9.248420   9.251974
    29  O   12.571301  11.178825  11.173130  10.054859  10.059980
    30  O   12.295445  11.279973  11.277040   9.746844   9.749220
    31  H   10.892259   9.234258   9.227412   8.479059   8.485190
                   21         22         23         24         25
    21  H    0.000000
    22  H    4.898940   0.000000
    23  H    4.545916   4.305268   0.000000
    24  C    7.441458   2.667979   5.420809   0.000000
    25  F    7.173916   2.295932   6.056028   1.384758   0.000000
    26  F    8.289843   3.642897   6.047232   1.383456   2.230072
    27  F    8.289105   3.642656   6.047744   1.383450   2.230089
    28  N    8.264374   4.665896   4.547297   3.070760   4.434473
    29  O    8.803551   5.678604   4.671967   4.264608   5.623057
    30  O    9.052417   4.960412   5.635412   2.774399   4.142843
    31  H    6.806232   4.880592   2.399265   4.689722   5.782346
                   26         27         28         29         30
    26  F    0.000000
    27  F    2.265502   0.000000
    28  N    3.120272   3.120554   0.000000
    29  O    4.238039   4.238332   1.194989   0.000000
    30  O    2.580814   2.580530   1.191953   2.050974   0.000000
    31  H    5.039547   5.040331   2.584956   2.351306   3.775147
                   31
    31  H    0.000000
 Stoichiometry    C11H11F3N3O3(1-)
 Framework group  C1[X(C11H11F3N3O3)]
 Deg. of freedom    87
 Full point group                 C1      NOp   1
 Largest Abelian subgroup         C1      NOp   1
 Largest concise Abelian subgroup C1      NOp   1
                         Standard orientation:                         
 ---------------------------------------------------------------------
 Center     Atomic      Atomic             Coordinates (Angstroms)
 Number     Number       Type             X           Y           Z
 ---------------------------------------------------------------------
      1          6           0       -7.517735    0.645682    0.008335
      2          6           0       -6.376561   -0.366888   -0.001275
      3          6           0       -5.010756    0.330384    0.002368
      4          7           0       -3.932658   -0.643307   -0.004916
      5          6           0       -2.621104   -0.270786   -0.002451
      6          8           0       -2.338486    0.916547    0.005392
      7          7           0       -1.649690   -1.236290   -0.007525
      8          6           0       -0.218811   -1.067560   -0.005135
      9          6           0        0.447485    0.179789   -0.004770
     10          6           0        0.565690   -2.227039   -0.003105
     11          6           0        1.951073   -2.156544    0.000057
     12          6           0        2.633477   -0.933130    0.000949
     13          6           0        1.862195    0.273500   -0.001856
     14          1           0       -8.490109    0.109319    0.005494
     15          1           0       -7.466539    1.294017   -0.892178
     16          1           0       -7.463982    1.279461    0.919042
     17          1           0       -6.465688   -1.001544   -0.909875
     18          1           0       -6.463380   -1.015488    0.897652
     19          1           0       -4.925926    0.964392    0.912546
     20          1           0       -4.927255    0.977200   -0.898871
     21          1           0       -4.167799   -1.648408   -0.011427
     22          1           0       -0.108707    1.094468   -0.007122
     23          1           0        0.103090   -3.205585   -0.003402
     24          6           0        2.499322    1.656846   -0.001863
     25          9           0        1.558536    2.672948   -0.005326
     26          9           0        3.280274    1.814245   -1.132921
     27          9           0        3.274810    1.816861    1.132573
     28          7           0        4.069648   -0.982017    0.004578
     29          8           0        4.627062   -2.039033    0.006982
     30          8           0        4.731529    0.009277    0.005741
     31          1           0        2.496124   -3.032874    0.001794
 ---------------------------------------------------------------------
 Rotational constants (GHZ):      0.7798948      0.1290421      0.1133907
 General basis read from cards:  (6D, 7F)
 There are   402 symmetry adapted cartesian basis functions of A   symmetry.
 There are   402 symmetry adapted basis functions of A   symmetry.
   402 basis functions,   684 primitive gaussians,   402 cartesian basis functions
    75 alpha electrons       75 beta electrons
       nuclear repulsion energy      1549.9624562172 Hartrees.
 NAtoms=   31 NActive=   31 NUniq=   31 SFac= 1.00D+00 NAtFMM=   60 NAOKFM=F Big=F
 Integral buffers will be    131072 words long.
 Raffenetti 2 integral format.
 Two-electron integral symmetry is turned on.
 ------------------------------------------------------------------------------
 Polarizable Continuum Model (PCM)
 =================================
 Model                : PCM (using non-symmetric T matrix).
 Atomic radii         : SMD-Coulomb.
 Polarization charges : Total charges.
 Charge compensation  : None.
 Solution method      : On-the-fly selection.
 Cavity type          : VdW (van der Waals Surface) (Alpha=1.000).
 Cavity algorithm     : GePol (No added spheres)
                        Default sphere list used, NSphG=   31.
                        Lebedev-Laikov grids with approx.  5.0 points / Ang**2.
                        Smoothing algorithm: York/Karplus (Gamma=1.0000).
                        Polarization charges: spherical gaussians, with
                                              point-specific exponents (IZeta= 3).
                        Self-potential: point-specific (ISelfS= 7).
                        Self-field    : sphere-specific E.n sum rule (ISelfD= 2).
 1st derivatives      : Analytical E(r).r(x)/FMM algorithm (CHGder, D1EAlg=3).
                        Cavity 1st derivative terms included.
 Solvent              : Water, Eps=  78.355300 Eps(inf)=   1.777849
 ------------------------------------------------------------------------------
 ------------------------------------------------------------------------------
 Atomic radii for non-electrostatic terms: SMD-CDS.
 ------------------------------------------------------------------------------
 Nuclear repulsion after PCM non-electrostatic terms =     1549.9752234129 Hartrees.
 One-electron integrals computed using PRISM.
 NBasis=   402 RedAO= T EigKep=  1.72D-06  NBF=   402
 NBsUse=   401 1.00D-06 EigRej=  2.92D-07 NBFU=   401
 ExpMin= 4.38D-02 ExpMax= 7.00D+03 ExpMxC= 1.05D+03 IAcc=3 IRadAn=         5 AccDes= 0.00D+00
 Harris functional with IExCor= 1009 and IRadAn=       5 diagonalized for initial guess.
 HarFok:  IExCor= 1009 AccDes= 0.00D+00 IRadAn=         5 IDoV= 1 UseB2=F ITyADJ=14
 ICtDFT=  3500011 ScaDFX=  1.000000  1.000000  1.000000  1.000000
 FoFCou: FMM=F IPFlag=           0 FMFlag=      100000 FMFlg1=           0
         NFxFlg=           0 DoJE=T BraDBF=F KetDBF=T FulRan=T
         wScrn=  0.000000 ICntrl=     500 IOpCl=  0 I1Cent=   200000004 NGrid=           0
         NMat0=    1 NMatS0=      1 NMatT0=    0 NMatD0=    1 NMtDS0=    0 NMtDT0=    0
 Petite list used in FoFCou.
 Requested convergence on RMS density matrix=1.00D-08 within 128 cycles.
 Requested convergence on MAX density matrix=1.00D-06.
 Requested convergence on             energy=1.00D-06.
 No special actions if energy rises.
 Inv3:  Mode=1 IEnd=    17078988.
 Iteration    1 A*A^-1 deviation from unit magnitude is 5.55D-15 for   2365.
 Iteration    1 A*A^-1 deviation from orthogonality  is 4.61D-15 for   1767   1647.
 Iteration    1 A^-1*A deviation from unit magnitude is 6.11D-15 for    574.
 Iteration    1 A^-1*A deviation from orthogonality  is 4.39D-11 for   1252   1244.
 Error on total polarization charges =  0.06145
 SCF Done:  E(RM062X) =  -1114.90906052     A.U. after   16 cycles
            NFock= 16  Conv=0.83D-08     -V/T= 2.0083
 SMD-CDS (non-electrostatic) energy       (kcal/mol) =       8.01
 (included in total energy above)

 **********************************************************************

            Population analysis using the SCF density.

 **********************************************************************

 Orbital symmetries:
       Occupied  (A) (A) (A) (A) (A) (A) (A) (A) (A) (A) (A) (A)
                 (A) (A) (A) (A) (A) (A) (A) (A) (A) (A) (A) (A)
                 (A) (A) (A) (A) (A) (A) (A) (A) (A) (A) (A) (A)
                 (A) (A) (A) (A) (A) (A) (A) (A) (A) (A) (A) (A)
                 (A) (A) (A) (A) (A) (A) (A) (A) (A) (A) (A) (A)
                 (A) (A) (A) (A) (A) (A) (A) (A) (A) (A) (A) (A)
                 (A) (A) (A)
       Virtual   (A) (A) (A) (A) (A) (A) (A) (A) (A) (A) (A) (A)
                 (A) (A) (A) (A) (A) (A) (A) (A) (A) (A) (A) (A)
                 (A) (A) (A) (A) (A) (A) (A) (A) (A) (A) (A) (A)
                 (A) (A) (A) (A) (A) (A) (A) (A) (A) (A) (A) (A)
                 (A) (A) (A) (A) (A) (A) (A) (A) (A) (A) (A) (A)
                 (A) (A) (A) (A) (A) (A) (A) (A) (A) (A) (A) (A)
                 (A) (A) (A) (A) (A) (A) (A) (A) (A) (A) (A) (A)
                 (A) (A) (A) (A) (A) (A) (A) (A) (A) (A) (A) (A)
                 (A) (A) (A) (A) (A) (A) (A) (A) (A) (A) (A) (A)
                 (A) (A) (A) (A) (A) (A) (A) (A) (A) (A) (A) (A)
                 (A) (A) (A) (A) (A) (A) (A) (A) (A) (A) (A) (A)
                 (A) (A) (A) (A) (A) (A) (A) (A) (A) (A) (A) (A)
                 (A) (A) (A) (A) (A) (A) (A) (A) (A) (A) (A) (A)
                 (A) (A) (A) (A) (A) (A) (A) (A) (A) (A) (A) (A)
                 (A) (A) (A) (A) (A) (A) (A) (A) (A) (A) (A) (A)
                 (A) (A) (A) (A) (A) (A) (A) (A) (A) (A) (A) (A)
                 (A) (A) (A) (A) (A) (A) (A) (A) (A) (A) (A) (A)
                 (A) (A) (A) (A) (A) (A) (A) (A) (A) (A) (A) (A)
                 (A) (A) (A) (A) (A) (A) (A) (A) (A) (A) (A) (A)
                 (A) (A) (A) (A) (A) (A) (A) (A) (A) (A) (A) (A)
                 (A) (A) (A) (A) (A) (A) (A) (A) (A) (A) (A) (A)
                 (A) (A) (A) (A) (A) (A) (A) (A) (A) (A) (A) (A)
                 (A) (A) (A) (A) (A) (A) (A) (A) (A) (A) (A) (A)
                 (A) (A) (A) (A) (A) (A) (A) (A) (A) (A) (A) (A)
                 (A) (A) (A) (A) (A) (A) (A) (A) (A) (A) (A) (A)
                 (A) (A) (A) (A) (A) (A) (A) (A) (A) (A) (A) (A)
                 (A) (A) (A) (A) (A) (A) (A) (A) (A) (A) (A) (A)
                 (A) (A)
 The electronic state is 1-A.
 Alpha  occ. eigenvalues --  -25.31186 -25.30644 -25.30643 -19.68209 -19.68055
 Alpha  occ. eigenvalues --  -19.59319 -15.02368 -14.76697 -14.71788 -10.83174
 Alpha  occ. eigenvalues --  -10.65262 -10.61731 -10.61201 -10.60961 -10.57342
 Alpha  occ. eigenvalues --  -10.57226 -10.56771 -10.55802 -10.54228 -10.53268
 Alpha  occ. eigenvalues --   -1.44912  -1.40722  -1.37036  -1.37019  -1.19801
 Alpha  occ. eigenvalues --   -1.16173  -1.01218  -1.00443  -0.95990  -0.90007
 Alpha  occ. eigenvalues --   -0.88992  -0.86590  -0.81847  -0.78793  -0.75406
 Alpha  occ. eigenvalues --   -0.72360  -0.70195  -0.68547  -0.67801  -0.67296
 Alpha  occ. eigenvalues --   -0.66747  -0.65016  -0.64705  -0.62421  -0.61058
 Alpha  occ. eigenvalues --   -0.58258  -0.57272  -0.56863  -0.54918  -0.54524
 Alpha  occ. eigenvalues --   -0.53722  -0.53664  -0.53042  -0.51916  -0.51776
 Alpha  occ. eigenvalues --   -0.50660  -0.49928  -0.48422  -0.47282  -0.46139
 Alpha  occ. eigenvalues --   -0.45484  -0.44227  -0.42866  -0.41404  -0.41068
 Alpha  occ. eigenvalues --   -0.39092  -0.39058  -0.38845  -0.37904  -0.36141
 Alpha  occ. eigenvalues --   -0.35721  -0.32905  -0.30896  -0.28745  -0.24646
 Alpha virt. eigenvalues --   -0.05862   0.00034   0.01997   0.03035   0.03462
 Alpha virt. eigenvalues --    0.04122   0.04204   0.04391   0.04535   0.05055
 Alpha virt. eigenvalues --    0.05828   0.06150   0.06202   0.07548   0.07900
 Alpha virt. eigenvalues --    0.07953   0.08602   0.09105   0.09284   0.09989
 Alpha virt. eigenvalues --    0.10279   0.11020   0.11116   0.12101   0.12330
 Alpha virt. eigenvalues --    0.12933   0.13460   0.13969   0.14514   0.14596
 Alpha virt. eigenvalues --    0.15104   0.15152   0.15793   0.15961   0.16990
 Alpha virt. eigenvalues --    0.17432   0.18071   0.18435   0.18669   0.19390
 Alpha virt. eigenvalues --    0.19929   0.20617   0.20817   0.21360   0.21738
 Alpha virt. eigenvalues --    0.22004   0.22282   0.22877   0.23510   0.23910
 Alpha virt. eigenvalues --    0.23968   0.24010   0.24418   0.24708   0.25134
 Alpha virt. eigenvalues --    0.25260   0.25781   0.25978   0.26687   0.27169
 Alpha virt. eigenvalues --    0.27275   0.27594   0.28249   0.28505   0.29162
 Alpha virt. eigenvalues --    0.29321   0.30292   0.30874   0.30875   0.31157
 Alpha virt. eigenvalues --    0.31737   0.32095   0.32535   0.33049   0.33151
 Alpha virt. eigenvalues --    0.33477   0.33481   0.33734   0.34585   0.34840
 Alpha virt. eigenvalues --    0.35435   0.36117   0.36498   0.36920   0.37458
 Alpha virt. eigenvalues --    0.38089   0.38637   0.39096   0.39158   0.39542
 Alpha virt. eigenvalues --    0.39870   0.41279   0.42134   0.42611   0.42874
 Alpha virt. eigenvalues --    0.43983   0.44335   0.44906   0.46369   0.47175
 Alpha virt. eigenvalues --    0.47274   0.48312   0.49382   0.49909   0.50197
 Alpha virt. eigenvalues --    0.51971   0.53107   0.54205   0.54811   0.55303
 Alpha virt. eigenvalues --    0.57007   0.60240   0.61864   0.66318   0.68532
 Alpha virt. eigenvalues --    0.70264   0.70535   0.70700   0.73147   0.73954
 Alpha virt. eigenvalues --    0.74832   0.75875   0.76446   0.77456   0.77692
 Alpha virt. eigenvalues --    0.77919   0.79061   0.80154   0.80802   0.82901
 Alpha virt. eigenvalues --    0.83247   0.84366   0.86182   0.88029   0.88668
 Alpha virt. eigenvalues --    0.89445   0.89837   0.90285   0.90720   0.94362
 Alpha virt. eigenvalues --    0.97887   0.98322   0.98998   1.00535   1.01034
 Alpha virt. eigenvalues --    1.01438   1.04198   1.04787   1.06492   1.06586
 Alpha virt. eigenvalues --    1.09490   1.10464   1.11395   1.12461   1.13125
 Alpha virt. eigenvalues --    1.13454   1.15046   1.15918   1.16791   1.17702
 Alpha virt. eigenvalues --    1.18831   1.19887   1.21016   1.21783   1.22632
 Alpha virt. eigenvalues --    1.23343   1.25474   1.26042   1.26224   1.26312
 Alpha virt. eigenvalues --    1.28669   1.29650   1.31639   1.33017   1.34205
 Alpha virt. eigenvalues --    1.34465   1.35954   1.36310   1.38741   1.39823
 Alpha virt. eigenvalues --    1.41089   1.42142   1.42433   1.43487   1.44630
 Alpha virt. eigenvalues --    1.45676   1.45719   1.47844   1.48464   1.48559
 Alpha virt. eigenvalues --    1.50802   1.51346   1.52516   1.53200   1.57046
 Alpha virt. eigenvalues --    1.58675   1.61113   1.61412   1.61890   1.64904
 Alpha virt. eigenvalues --    1.67014   1.67353   1.70358   1.71494   1.72784
 Alpha virt. eigenvalues --    1.73163   1.74715   1.74829   1.75139   1.76582
 Alpha virt. eigenvalues --    1.77801   1.80558   1.81352   1.84001   1.85143
 Alpha virt. eigenvalues --    1.86071   1.86788   1.87038   1.87361   1.88032
 Alpha virt. eigenvalues --    1.88302   1.88486   1.88996   1.90018   1.91735
 Alpha virt. eigenvalues --    1.92804   1.93109   1.94272   1.95560   1.96116
 Alpha virt. eigenvalues --    1.97463   1.97938   1.98809   2.00980   2.01161
 Alpha virt. eigenvalues --    2.01755   2.03179   2.04191   2.04875   2.05214
 Alpha virt. eigenvalues --    2.05225   2.06076   2.06877   2.07724   2.09526
 Alpha virt. eigenvalues --    2.11708   2.11797   2.12449   2.15254   2.15406
 Alpha virt. eigenvalues --    2.16555   2.20969   2.21427   2.21851   2.23292
 Alpha virt. eigenvalues --    2.23773   2.26428   2.26629   2.27378   2.30070
 Alpha virt. eigenvalues --    2.31218   2.31621   2.31662   2.33115   2.37914
 Alpha virt. eigenvalues --    2.39527   2.41156   2.41306   2.43640   2.43827
 Alpha virt. eigenvalues --    2.49375   2.49638   2.52371   2.57278   2.57703
 Alpha virt. eigenvalues --    2.59996   2.62747   2.64629   2.66684   2.67470
 Alpha virt. eigenvalues --    2.70658   2.73488   2.74466   2.75485   2.77148
 Alpha virt. eigenvalues --    2.77270   2.78652   2.80421   2.83354   2.86370
 Alpha virt. eigenvalues --    2.88249   2.92716   2.95303   3.01056   3.04443
 Alpha virt. eigenvalues --    3.06907   3.13211   3.14400   3.15554   3.20679
 Alpha virt. eigenvalues --    3.25101   3.29411   3.30329   3.36494   3.41318
 Alpha virt. eigenvalues --    3.45862   4.17269   4.24782   4.27423   4.31656
 Alpha virt. eigenvalues --    4.32585   4.41000   4.41790   4.44275   4.45532
 Alpha virt. eigenvalues --    4.51359   4.52906   4.56979   4.60494   4.65284
 Alpha virt. eigenvalues --    4.68426   4.82400   4.90614   5.58347   6.18682
 Alpha virt. eigenvalues --    7.12521
          Condensed to atoms (all electrons):
               1          2          3          4          5          6
     1  C    5.660212  -0.081084   0.056571  -0.007227  -0.058335  -0.004597
     2  C   -0.081084   6.202968  -0.472004  -0.068001   0.177173   0.021402
     3  C    0.056571  -0.472004   7.148903   0.280883  -0.673779  -0.099357
     4  N   -0.007227  -0.068001   0.280883   7.681182   0.462639  -0.244693
     5  C   -0.058335   0.177173  -0.673779   0.462639   6.479848   0.470187
     6  O   -0.004597   0.021402  -0.099357  -0.244693   0.470187   8.737943
     7  N   -0.003242   0.007957  -0.097842  -0.304832   0.271866  -0.110853
     8  C   -0.012476   0.008547  -0.527536  -0.213848  -1.041421  -0.231045
     9  C    0.004592   0.007940   0.146180   0.055105   0.904221   0.322823
    10  C   -0.003669   0.008325  -0.219224  -0.116359  -1.729110  -0.112043
    11  C    0.000030  -0.001586   0.018059   0.009499   0.202159   0.005074
    12  C   -0.000152   0.000454  -0.025196  -0.005462  -0.299980  -0.011445
    13  C    0.000545   0.001396   0.020848   0.032795   0.149463   0.045105
    14  H    0.413930  -0.089053   0.027689   0.000471  -0.002210   0.000006
    15  H    0.416118  -0.063957  -0.008314   0.000403  -0.000122  -0.000050
    16  H    0.416393  -0.064156  -0.008371   0.000400  -0.000138  -0.000050
    17  H   -0.035313   0.425437  -0.073071   0.005737  -0.007171  -0.000193
    18  H   -0.035644   0.425849  -0.073417   0.005749  -0.006945  -0.000194
    19  H    0.003477  -0.042657   0.430821  -0.056113  -0.028150   0.003563
    20  H    0.002813  -0.041816   0.427561  -0.055902  -0.025766   0.003507
    21  H   -0.004182   0.004566  -0.082038   0.244994   0.029587   0.010757
    22  H    0.000006  -0.000061   0.005246   0.001282   0.028320  -0.001193
    23  H   -0.000000   0.000031  -0.000883  -0.000110  -0.024683   0.000105
    24  C   -0.000017   0.000458  -0.007606   0.000293  -0.161476   0.000734
    25  F   -0.000000   0.000006   0.000095  -0.000056   0.002216  -0.000784
    26  F    0.000000  -0.000000   0.000031   0.000002   0.002990  -0.000031
    27  F    0.000000  -0.000001   0.000035   0.000003   0.003218  -0.000029
    28  N    0.000001  -0.000001   0.000231   0.000018   0.008616   0.000046
    29  O    0.000000   0.000000   0.000005  -0.000001   0.000973   0.000003
    30  O   -0.000000  -0.000000   0.000005   0.000004   0.000614   0.000007
    31  H    0.000000  -0.000000   0.000034   0.000026   0.003986   0.000001
               7          8          9         10         11         12
     1  C   -0.003242  -0.012476   0.004592  -0.003669   0.000030  -0.000152
     2  C    0.007957   0.008547   0.007940   0.008325  -0.001586   0.000454
     3  C   -0.097842  -0.527536   0.146180  -0.219224   0.018059  -0.025196
     4  N   -0.304832  -0.213848   0.055105  -0.116359   0.009499  -0.005462
     5  C    0.271866  -1.041421   0.904221  -1.729110   0.202159  -0.299980
     6  O   -0.110853  -0.231045   0.322823  -0.112043   0.005074  -0.011445
     7  N    7.715430   0.350407  -0.119391  -0.175229   0.099613  -0.040388
     8  C    0.350407  15.156397  -2.358033   0.207370  -0.048275  -1.625323
     9  C   -0.119391  -2.358033  11.572783  -4.368328  -0.639936  -2.670298
    10  C   -0.175229   0.207370  -4.368328  16.103610  -1.088050  -0.385666
    11  C    0.099613  -0.048275  -0.639936  -1.088050  11.732490  -1.123761
    12  C   -0.040388  -1.625323  -2.670298  -0.385666  -1.123761  22.501228
    13  C    0.008356  -3.098111   2.019506  -1.738622  -3.242107  -5.964329
    14  H    0.000007  -0.000047   0.000006  -0.000003  -0.000000  -0.000000
    15  H    0.000016   0.000007  -0.000024   0.000002   0.000000  -0.000000
    16  H    0.000017   0.000006  -0.000023   0.000002   0.000000  -0.000000
    17  H    0.000008  -0.000707  -0.000079   0.000065   0.000001   0.000001
    18  H   -0.000015  -0.000661  -0.000116   0.000080   0.000002   0.000001
    19  H   -0.000891  -0.004643   0.002422  -0.000727  -0.000033   0.000004
    20  H   -0.000925  -0.004002   0.002230  -0.000578  -0.000036   0.000009
    21  H    0.025654   0.019999  -0.004413   0.004336  -0.000519   0.000020
    22  H   -0.007033  -0.040450   0.405722  -0.005546  -0.014131  -0.056834
    23  H    0.001204  -0.109143  -0.009402   0.514299  -0.055526  -0.024405
    24  C    0.012259  -1.048159  -0.244100   0.770070  -0.577938  -1.991378
    25  F   -0.000540   0.108557   0.026493  -0.000025   0.011633   0.040234
    26  F    0.000266   0.033061   0.043779  -0.014890   0.047076  -0.085493
    27  F    0.000265   0.034185   0.045205  -0.016268   0.048876  -0.086658
    28  N    0.000374   0.010358  -0.045501   0.012276   0.153063  -0.307365
    29  O   -0.000087   0.052862   0.035962   0.108226   0.023756  -0.636783
    30  O    0.000069   0.022422   0.073952  -0.010067   0.211522  -0.260257
    31  H    0.001079   0.045211   0.004626  -0.148039   0.284073   0.041002
              13         14         15         16         17         18
     1  C    0.000545   0.413930   0.416118   0.416393  -0.035313  -0.035644
     2  C    0.001396  -0.089053  -0.063957  -0.064156   0.425437   0.425849
     3  C    0.020848   0.027689  -0.008314  -0.008371  -0.073071  -0.073417
     4  N    0.032795   0.000471   0.000403   0.000400   0.005737   0.005749
     5  C    0.149463  -0.002210  -0.000122  -0.000138  -0.007171  -0.006945
     6  O    0.045105   0.000006  -0.000050  -0.000050  -0.000193  -0.000194
     7  N    0.008356   0.000007   0.000016   0.000017   0.000008  -0.000015
     8  C   -3.098111  -0.000047   0.000007   0.000006  -0.000707  -0.000661
     9  C    2.019506   0.000006  -0.000024  -0.000023  -0.000079  -0.000116
    10  C   -1.738622  -0.000003   0.000002   0.000002   0.000065   0.000080
    11  C   -3.242107  -0.000000   0.000000   0.000000   0.000001   0.000002
    12  C   -5.964329  -0.000000  -0.000000  -0.000000   0.000001   0.000001
    13  C   18.448308  -0.000000   0.000000   0.000000  -0.000002  -0.000004
    14  H   -0.000000   0.483819  -0.024012  -0.024024  -0.003014  -0.003017
    15  H    0.000000  -0.024012   0.488341  -0.028410  -0.004581   0.003809
    16  H    0.000000  -0.024024  -0.028410   0.488355   0.003807  -0.004587
    17  H   -0.000002  -0.003014  -0.004581   0.003807   0.493407  -0.030957
    18  H   -0.000004  -0.003017   0.003809  -0.004587  -0.030957   0.493448
    19  H    0.000093  -0.000058  -0.000323   0.002631   0.003783  -0.005531
    20  H    0.000096  -0.000059   0.002624  -0.000320  -0.005543   0.003781
    21  H   -0.000504  -0.000003   0.000000   0.000000   0.000489   0.000490
    22  H   -0.026982  -0.000000   0.000000   0.000000   0.000000   0.000000
    23  H    0.014516  -0.000000  -0.000000  -0.000000  -0.000000  -0.000000
    24  C   -0.809203  -0.000000  -0.000000  -0.000000  -0.000000  -0.000001
    25  F   -0.161045   0.000000   0.000000   0.000000  -0.000000  -0.000000
    26  F    0.031136  -0.000000  -0.000000   0.000000  -0.000000   0.000000
    27  F    0.031487  -0.000000   0.000000  -0.000000  -0.000000  -0.000000
    28  N    0.027787   0.000000   0.000000   0.000000   0.000000   0.000000
    29  O    0.306623  -0.000000  -0.000000  -0.000000  -0.000000  -0.000000
    30  O   -0.269053  -0.000000   0.000000   0.000000   0.000000   0.000000
    31  H    0.105726  -0.000000   0.000000   0.000000   0.000000   0.000000
              19         20         21         22         23         24
     1  C    0.003477   0.002813  -0.004182   0.000006  -0.000000  -0.000017
     2  C   -0.042657  -0.041816   0.004566  -0.000061   0.000031   0.000458
     3  C    0.430821   0.427561  -0.082038   0.005246  -0.000883  -0.007606
     4  N   -0.056113  -0.055902   0.244994   0.001282  -0.000110   0.000293
     5  C   -0.028150  -0.025766   0.029587   0.028320  -0.024683  -0.161476
     6  O    0.003563   0.003507   0.010757  -0.001193   0.000105   0.000734
     7  N   -0.000891  -0.000925   0.025654  -0.007033   0.001204   0.012259
     8  C   -0.004643  -0.004002   0.019999  -0.040450  -0.109143  -1.048159
     9  C    0.002422   0.002230  -0.004413   0.405722  -0.009402  -0.244100
    10  C   -0.000727  -0.000578   0.004336  -0.005546   0.514299   0.770070
    11  C   -0.000033  -0.000036  -0.000519  -0.014131  -0.055526  -0.577938
    12  C    0.000004   0.000009   0.000020  -0.056834  -0.024405  -1.991378
    13  C    0.000093   0.000096  -0.000504  -0.026982   0.014516  -0.809203
    14  H   -0.000058  -0.000059  -0.000003  -0.000000  -0.000000  -0.000000
    15  H   -0.000323   0.002624   0.000000   0.000000  -0.000000  -0.000000
    16  H    0.002631  -0.000320   0.000000   0.000000  -0.000000  -0.000000
    17  H    0.003783  -0.005543   0.000489   0.000000  -0.000000  -0.000000
    18  H   -0.005531   0.003781   0.000490   0.000000  -0.000000  -0.000001
    19  H    0.509751  -0.041148   0.002118  -0.000000  -0.000000  -0.000008
    20  H   -0.041148   0.509712   0.002117  -0.000000  -0.000000  -0.000005
    21  H    0.002118   0.002117   0.275681  -0.000000   0.000003   0.000007
    22  H   -0.000000  -0.000000  -0.000000   0.416518  -0.000103   0.000614
    23  H   -0.000000  -0.000000   0.000003  -0.000103   0.433001   0.004560
    24  C   -0.000008  -0.000005   0.000007   0.000614   0.004560   8.279440
    25  F   -0.000000   0.000000   0.000000   0.007507   0.000000   0.096228
    26  F   -0.000000   0.000000  -0.000000  -0.000084   0.000001   0.079946
    27  F    0.000000  -0.000000  -0.000000  -0.000083   0.000001   0.077605
    28  N    0.000000  -0.000000  -0.000000  -0.000096   0.000140  -0.267565
    29  O   -0.000000  -0.000000   0.000000   0.000045  -0.000088   0.011345
    30  O   -0.000000  -0.000000  -0.000000  -0.000061   0.000054   0.173487
    31  H   -0.000000  -0.000000  -0.000000   0.000009  -0.003590  -0.001411
              25         26         27         28         29         30
     1  C   -0.000000   0.000000   0.000000   0.000001   0.000000  -0.000000
     2  C    0.000006  -0.000000  -0.000001  -0.000001   0.000000  -0.000000
     3  C    0.000095   0.000031   0.000035   0.000231   0.000005   0.000005
     4  N   -0.000056   0.000002   0.000003   0.000018  -0.000001   0.000004
     5  C    0.002216   0.002990   0.003218   0.008616   0.000973   0.000614
     6  O   -0.000784  -0.000031  -0.000029   0.000046   0.000003   0.000007
     7  N   -0.000540   0.000266   0.000265   0.000374  -0.000087   0.000069
     8  C    0.108557   0.033061   0.034185   0.010358   0.052862   0.022422
     9  C    0.026493   0.043779   0.045205  -0.045501   0.035962   0.073952
    10  C   -0.000025  -0.014890  -0.016268   0.012276   0.108226  -0.010067
    11  C    0.011633   0.047076   0.048876   0.153063   0.023756   0.211522
    12  C    0.040234  -0.085493  -0.086658  -0.307365  -0.636783  -0.260257
    13  C   -0.161045   0.031136   0.031487   0.027787   0.306623  -0.269053
    14  H    0.000000  -0.000000  -0.000000   0.000000  -0.000000  -0.000000
    15  H    0.000000  -0.000000   0.000000   0.000000  -0.000000   0.000000
    16  H    0.000000   0.000000  -0.000000   0.000000  -0.000000   0.000000
    17  H   -0.000000  -0.000000  -0.000000   0.000000  -0.000000   0.000000
    18  H   -0.000000   0.000000  -0.000000   0.000000  -0.000000   0.000000
    19  H   -0.000000  -0.000000   0.000000   0.000000  -0.000000  -0.000000
    20  H    0.000000   0.000000  -0.000000  -0.000000  -0.000000  -0.000000
    21  H    0.000000  -0.000000  -0.000000  -0.000000   0.000000  -0.000000
    22  H    0.007507  -0.000084  -0.000083  -0.000096   0.000045  -0.000061
    23  H    0.000000   0.000001   0.000001   0.000140  -0.000088   0.000054
    24  C    0.096228   0.079946   0.077605  -0.267565   0.011345   0.173487
    25  F    9.283436  -0.035964  -0.036017   0.000438   0.000068   0.000726
    26  F   -0.035964   9.249934  -0.045440  -0.005871  -0.001808  -0.020581
    27  F   -0.036017  -0.045440   9.249893  -0.005897  -0.001802  -0.020580
    28  N    0.000438  -0.005871  -0.005897   7.022316   0.333914   0.334806
    29  O    0.000068  -0.001808  -0.001802   0.333914   7.968507  -0.098918
    30  O    0.000726  -0.020581  -0.020580   0.334806  -0.098918   8.017678
    31  H    0.000008  -0.000015  -0.000015  -0.045749   0.019791  -0.002217
              31
     1  C    0.000000
     2  C   -0.000000
     3  C    0.000034
     4  N    0.000026
     5  C    0.003986
     6  O    0.000001
     7  N    0.001079
     8  C    0.045211
     9  C    0.004626
    10  C   -0.148039
    11  C    0.284073
    12  C    0.041002
    13  C    0.105726
    14  H   -0.000000
    15  H    0.000000
    16  H    0.000000
    17  H    0.000000
    18  H    0.000000
    19  H   -0.000000
    20  H   -0.000000
    21  H   -0.000000
    22  H    0.000009
    23  H   -0.003590
    24  C   -0.001411
    25  F    0.000008
    26  F   -0.000015
    27  F   -0.000015
    28  N   -0.045749
    29  O    0.019791
    30  O   -0.002217
    31  H    0.425644
 Mulliken charges:
               1
     1  C   -0.728748
     2  C   -0.368134
     3  C   -0.194558
     4  N   -0.708881
     5  C    0.861207
     6  O   -0.804707
     7  N   -0.633579
     8  C    0.314489
     9  C    0.786097
    10  C   -1.596217
    11  C   -0.055028
    12  C   -0.981777
    13  C    0.066177
    14  H    0.219573
    15  H    0.218474
    16  H    0.218468
    17  H    0.227895
    18  H    0.227879
    19  H    0.221619
    20  H    0.221649
    21  H    0.470841
    22  H    0.287388
    23  H    0.260020
    24  C    1.601820
    25  F   -0.343214
    26  F   -0.278047
    27  F   -0.277982
    28  N   -0.226337
    29  O   -0.122595
    30  O   -0.153611
    31  H    0.269819
 Sum of Mulliken charges =  -1.00000
 Mulliken charges with hydrogens summed into heavy atoms:
               1
     1  C   -0.072234
     2  C    0.087640
     3  C    0.248710
     4  N   -0.238039
     5  C    0.861207
     6  O   -0.804707
     7  N   -0.633579
     8  C    0.314489
     9  C    1.073485
    10  C   -1.336197
    11  C    0.214791
    12  C   -0.981777
    13  C    0.066177
    24  C    1.601820
    25  F   -0.343214
    26  F   -0.278047
    27  F   -0.277982
    28  N   -0.226337
    29  O   -0.122595
    30  O   -0.153611
 Electronic spatial extent (au):  <R**2>=           8970.8675
 Charge=             -1.0000 electrons
 Dipole moment (field-independent basis, Debye):
    X=             -6.8893    Y=             -1.9216    Z=             -0.0191  Tot=              7.1523
 Quadrupole moment (field-independent basis, Debye-Ang):
   XX=           -161.8684   YY=           -127.9944   ZZ=           -119.8108
   XY=              6.7700   XZ=             -0.0339   YZ=             -0.0316
 Traceless Quadrupole moment (field-independent basis, Debye-Ang):
   XX=            -25.3105   YY=              8.5635   ZZ=             16.7470
   XY=              6.7700   XZ=             -0.0339   YZ=             -0.0316
 Octapole moment (field-independent basis, Debye-Ang**2):
  XXX=           -306.4243  YYY=             19.9190  ZZZ=              0.1090  XYY=              5.9981
  XXY=             13.8489  XXZ=             -0.5387  XZZ=             21.3792  YZZ=             15.1652
  YYZ=             -0.0529  XYZ=              0.1753
 Hexadecapole moment (field-independent basis, Debye-Ang**3):
 XXXX=         -10658.7506 YYYY=          -1418.6762 ZZZZ=           -220.3616 XXXY=            441.1571
 XXXZ=             -0.8107 YYYX=            101.3971 YYYZ=             -0.1478 ZZZX=              0.0113
 ZZZY=             -0.2109 XXYY=          -2049.4804 XXZZ=          -1685.6789 YYZZ=           -289.0144
 XXYZ=              0.2516 YYXZ=              0.0982 ZZXY=              7.4723
 N-N= 1.549975223413D+03 E-N=-5.732842330656D+03  KE= 1.105700853697D+03
 D1PCM: PCM CHGder 1st derivatives, ID1Alg=3 FixD1E=F DoIter=F DoCFld=F I1PDM=0.
 Calling FoFJK, ICntrl=      2127 FMM=F ISym2X=0 I1Cent= 0 IOpClX= 0 NMat=1 NMatS=1 NMatT=0.
 ***** Axes restored to original set *****
 -------------------------------------------------------------------
 Center     Atomic                   Forces (Hartrees/Bohr)
 Number     Number              X              Y              Z
 -------------------------------------------------------------------
      1        6          -0.005220697    0.001118948   -0.000124980
      2        6           0.004201880   -0.004199393    0.000231921
      3        6          -0.003472407    0.003089868   -0.000126484
      4        7           0.006421955   -0.029075028    0.001171590
      5        6           0.041535556   -0.024107583    0.001799991
      6        8          -0.017072702    0.067272455   -0.002944237
      7        7           0.038470706   -0.023947183    0.001765455
      8        6          -0.081389861   -0.007336918   -0.001387554
      9        6           0.038285373    0.017591174    0.000061064
     10        6           0.017507702   -0.000664225    0.000430014
     11        6          -0.034216843    0.025117993   -0.001959045
     12        6          -0.022013186    0.006967561   -0.000863387
     13        6          -0.012773158   -0.012308503    0.000268077
     14        1           0.005709358    0.009254230   -0.000260148
     15        1          -0.000962874   -0.004314052    0.009206605
     16        1          -0.000633487   -0.005005817   -0.008900587
     17        1           0.001101278    0.004086881    0.009043925
     18        1           0.001457856    0.003380839   -0.009281956
     19        1          -0.000119180   -0.003380785   -0.009518010
     20        1          -0.000470575   -0.002662826    0.009727714
     21        1           0.000041921    0.016653016   -0.000628908
     22        1          -0.006727164    0.003007437   -0.000278801
     23        1          -0.002801107   -0.001270608   -0.000012796
     24        6           0.002492212    0.000946513    0.000006179
     25        9           0.035566542   -0.016435562    0.001604769
     26        9          -0.021287591    0.005387891    0.030131739
     27        9          -0.019839018    0.002572837   -0.031472338
     28        7          -0.026440832   -0.004824937   -0.000346863
     29        8           0.030243674   -0.065549668    0.003659832
     30        8           0.000681449    0.067498239   -0.003056833
     31        1           0.031723221   -0.028862795    0.002054052
 -------------------------------------------------------------------
 Cartesian Forces:  Max     0.081389861 RMS     0.020566344

 GradGradGradGradGradGradGradGradGradGradGradGradGradGradGradGradGradGrad
 Berny optimization.
 FormGI is forming the generalized inverse of G from B-inverse, IUseBI=4.
 GSVD:  received Info=                   1 from GESDD.
 Internal  Forces:  Max     0.069002199 RMS     0.015233958
 Search for a local minimum.
 Step number   1 out of a maximum of  159
 All quantities printed in internal units (Hartrees-Bohrs-Radians)
 Mixed Optimization -- RFO/linear search
 Second derivative matrix not updated -- first step.
 ITU=  0
     Eigenvalues ---    0.00323   0.00426   0.00461   0.00994   0.01152
     Eigenvalues ---    0.01202   0.01202   0.01242   0.01467   0.01655
     Eigenvalues ---    0.01783   0.01830   0.01878   0.01970   0.02094
     Eigenvalues ---    0.02142   0.02145   0.02147   0.02175   0.02189
     Eigenvalues ---    0.03741   0.04447   0.04929   0.05552   0.05673
     Eigenvalues ---    0.05791   0.08055   0.09158   0.10820   0.11117
     Eigenvalues ---    0.11992   0.12653   0.16000   0.16000   0.16000
     Eigenvalues ---    0.16000   0.16000   0.16000   0.16000   0.21966
     Eigenvalues ---    0.22000   0.22001   0.22359   0.23482   0.24589
     Eigenvalues ---    0.25000   0.25000   0.25000   0.25000   0.25000
     Eigenvalues ---    0.25000   0.25000   0.25000   0.25000   0.25000
     Eigenvalues ---    0.25000   0.29102   0.29827   0.30078   0.32340
     Eigenvalues ---    0.32341   0.32401   0.32401   0.32512   0.32515
     Eigenvalues ---    0.32547   0.35708   0.37166   0.37890   0.39113
     Eigenvalues ---    0.39477   0.39999   0.40281   0.42438   0.42476
     Eigenvalues ---    0.42546   0.44562   0.44970   0.47039   0.48243
     Eigenvalues ---    0.48476   0.48477   0.51049   0.52259   0.95149
     Eigenvalues ---    1.07382   1.08973
 RFO step:  Lambda=-6.52068721D-02 EMin= 3.22792349D-03
 Linear search not attempted -- first point.
 Maximum step size (   0.300) exceeded in Quadratic search.
    -- Step size scaled by   0.775
 Iteration  1 RMS(Cart)=  0.10009936 RMS(Int)=  0.00170146
 Iteration  2 RMS(Cart)=  0.00271559 RMS(Int)=  0.00024036
 Iteration  3 RMS(Cart)=  0.00000520 RMS(Int)=  0.00024033
 Iteration  4 RMS(Cart)=  0.00000000 RMS(Int)=  0.00024033
 Variable       Old X    -DE/DX   Delta X   Delta X   Delta X     New X
                                 (Linear)    (Quad)   (Total)
    R1        2.88310   0.00147   0.00000   0.00313   0.00313   2.88623
    R2        2.09854  -0.01053   0.00000  -0.02089  -0.02089   2.07765
    R3        2.09911  -0.00995   0.00000  -0.01976  -0.01976   2.07935
    R4        2.09917  -0.00997   0.00000  -0.01981  -0.01981   2.07937
    R5        2.89790  -0.00710   0.00000  -0.01545  -0.01545   2.88244
    R6        2.10116  -0.00953   0.00000  -0.01897  -0.01897   2.08218
    R7        2.10116  -0.00952   0.00000  -0.01896  -0.01896   2.08220
    R8        2.74526  -0.00078   0.00000  -0.00136  -0.00136   2.74390
    R9        2.10226  -0.00956   0.00000  -0.01907  -0.01907   2.08319
   R10        2.10225  -0.00956   0.00000  -0.01907  -0.01907   2.08318
   R11        2.57652  -0.00127   0.00000  -0.00168  -0.00168   2.57484
   R12        1.95069  -0.01666   0.00000  -0.02637  -0.02637   1.92432
   R13        2.30647   0.06776   0.00000   0.05167   0.05167   2.35813
   R14        2.58821  -0.01215   0.00000  -0.01636  -0.01636   2.57185
   R15        2.72271  -0.06900   0.00000  -0.11629  -0.11629   2.60642
   R16        2.67236   0.00535   0.00000   0.00837   0.00835   2.68072
   R17        2.64551   0.00702   0.00000   0.01143   0.01142   2.65692
   R18        2.67928  -0.02994   0.00000  -0.04802  -0.04802   2.63126
   R19        2.02297   0.00694   0.00000   0.01232   0.01232   2.03529
   R20        2.62139  -0.01028   0.00000  -0.01380  -0.01379   2.60760
   R21        2.04541   0.00176   0.00000   0.00322   0.00322   2.04863
   R22        2.64725  -0.00117   0.00000  -0.00179  -0.00177   2.64548
   R23        1.95021   0.04293   0.00000   0.06793   0.06793   2.01813
   R24        2.70623  -0.00988   0.00000  -0.01730  -0.01729   2.68895
   R25        2.71555   0.00373   0.00000   0.00621   0.00621   2.72176
   R26        2.87808  -0.00795   0.00000  -0.01684  -0.01684   2.86124
   R27        2.61681  -0.03888   0.00000  -0.05504  -0.05504   2.56177
   R28        2.61435  -0.03480   0.00000  -0.04905  -0.04905   2.56530
   R29        2.61434  -0.03481   0.00000  -0.04907  -0.04907   2.56527
   R30        2.25820   0.06877   0.00000   0.04680   0.04680   2.30500
   R31        2.25246   0.06416   0.00000   0.04307   0.04307   2.29553
    A1        1.91174   0.00326   0.00000   0.01180   0.01175   1.92349
    A2        1.92601   0.00206   0.00000   0.00679   0.00676   1.93277
    A3        1.92584   0.00206   0.00000   0.00678   0.00675   1.93259
    A4        1.89672  -0.00245   0.00000  -0.00785  -0.00790   1.88883
    A5        1.89656  -0.00243   0.00000  -0.00779  -0.00784   1.88873
    A6        1.90646  -0.00265   0.00000  -0.01024  -0.01025   1.89621
    A7        1.94378  -0.00127   0.00000  -0.00203  -0.00202   1.94176
    A8        1.90077   0.00170   0.00000   0.00800   0.00800   1.90877
    A9        1.90039   0.00173   0.00000   0.00817   0.00817   1.90855
   A10        1.91014  -0.00030   0.00000  -0.00270  -0.00270   1.90744
   A11        1.91013  -0.00032   0.00000  -0.00276  -0.00277   1.90736
   A12        1.89804  -0.00154   0.00000  -0.00880  -0.00884   1.88920
   A13        1.93499  -0.00313   0.00000  -0.00691  -0.00690   1.92809
   A14        1.90603   0.00104   0.00000   0.00274   0.00275   1.90878
   A15        1.90636   0.00102   0.00000   0.00260   0.00261   1.90897
   A16        1.90657   0.00172   0.00000   0.00667   0.00668   1.91324
   A17        1.90703   0.00170   0.00000   0.00653   0.00653   1.91356
   A18        1.90258  -0.00234   0.00000  -0.01180  -0.01181   1.89077
   A19        2.13027  -0.00032   0.00000  -0.00086  -0.00086   2.12942
   A20        2.07556   0.00069   0.00000   0.00225   0.00225   2.07781
   A21        2.07735  -0.00037   0.00000  -0.00139  -0.00139   2.07596
   A22        2.08122  -0.00006   0.00000  -0.00014  -0.00014   2.08108
   A23        2.08249  -0.03518   0.00000  -0.08653  -0.08653   1.99596
   A24        2.11948   0.03524   0.00000   0.08667   0.08667   2.20615
   A25        2.24185  -0.04364   0.00000  -0.10732  -0.10732   2.13453
   A26        2.17878   0.00466   0.00000   0.01046   0.01048   2.18926
   A27        2.04827  -0.00233   0.00000  -0.00673  -0.00672   2.04155
   A28        2.05614  -0.00233   0.00000  -0.00373  -0.00376   2.05238
   A29        2.12755   0.00149   0.00000   0.00271   0.00269   2.13024
   A30        2.10465  -0.00326   0.00000  -0.00999  -0.00998   2.09466
   A31        2.05099   0.00176   0.00000   0.00728   0.00729   2.05828
   A32        2.11480  -0.00276   0.00000  -0.00383  -0.00383   2.11097
   A33        2.10514  -0.00120   0.00000  -0.00698  -0.00698   2.09816
   A34        2.06324   0.00397   0.00000   0.01081   0.01081   2.07405
   A35        2.13044  -0.00398   0.00000  -0.00909  -0.00907   2.12137
   A36        2.07638   0.00263   0.00000   0.00677   0.00676   2.08313
   A37        2.07637   0.00134   0.00000   0.00233   0.00232   2.07869
   A38        2.06404   0.00490   0.00000   0.01044   0.01046   2.07450
   A39        2.04557  -0.00894   0.00000  -0.02116  -0.02118   2.02439
   A40        2.17357   0.00403   0.00000   0.01073   0.01072   2.18429
   A41        2.07340   0.00267   0.00000   0.00351   0.00352   2.07692
   A42        2.06855  -0.01629   0.00000  -0.03852  -0.03853   2.03002
   A43        2.14123   0.01361   0.00000   0.03501   0.03501   2.17625
   A44        1.96305  -0.00055   0.00000  -0.00636  -0.00621   1.95684
   A45        1.91717   0.01967   0.00000   0.05085   0.04979   1.96696
   A46        1.91723   0.01967   0.00000   0.05085   0.04978   1.96702
   A47        1.87337  -0.01347   0.00000  -0.03799  -0.03785   1.83552
   A48        1.87340  -0.01348   0.00000  -0.03804  -0.03790   1.83550
   A49        1.91858  -0.01382   0.00000  -0.02407  -0.02603   1.89256
   A50        2.09011  -0.01763   0.00000  -0.04336  -0.04336   2.04675
   A51        2.12548  -0.01504   0.00000  -0.03699  -0.03699   2.08849
   A52        2.06759   0.03267   0.00000   0.08035   0.08035   2.14794
    D1       -3.14153  -0.00000   0.00000  -0.00003  -0.00003  -3.14156
    D2        1.03353   0.00006   0.00000  -0.00067  -0.00066   1.03287
    D3       -1.03366  -0.00006   0.00000   0.00063   0.00062  -1.03304
    D4        1.05421  -0.00031   0.00000  -0.00198  -0.00199   1.05222
    D5       -1.05393  -0.00025   0.00000  -0.00261  -0.00261  -1.05654
    D6       -3.12111  -0.00037   0.00000  -0.00132  -0.00133  -3.12245
    D7       -1.05437   0.00031   0.00000   0.00197   0.00198  -1.05239
    D8        3.12068   0.00037   0.00000   0.00134   0.00136   3.12204
    D9        1.05349   0.00025   0.00000   0.00263   0.00263   1.05613
   D10        3.14017   0.00003   0.00000   0.00017   0.00017   3.14034
   D11        1.03858  -0.00081   0.00000  -0.00554  -0.00554   1.03304
   D12       -1.04064   0.00082   0.00000   0.00561   0.00561  -1.03503
   D13       -1.04039   0.00114   0.00000   0.00709   0.00708  -1.03330
   D14        3.14121   0.00030   0.00000   0.00137   0.00137  -3.14061
   D15        1.06199   0.00193   0.00000   0.01253   0.01252   1.07451
   D16        1.03803  -0.00112   0.00000  -0.00691  -0.00691   1.03112
   D17       -1.06356  -0.00195   0.00000  -0.01263  -0.01262  -1.07618
   D18        3.14040  -0.00032   0.00000  -0.00147  -0.00146   3.13894
   D19       -3.14077  -0.00001   0.00000  -0.00010  -0.00010  -3.14088
   D20       -0.00002  -0.00001   0.00000  -0.00011  -0.00011  -0.00012
   D21       -1.03950   0.00041   0.00000   0.00327   0.00326  -1.03624
   D22        2.10125   0.00041   0.00000   0.00327   0.00326   2.10451
   D23        1.04044  -0.00040   0.00000  -0.00321  -0.00321   1.03723
   D24       -2.10199  -0.00040   0.00000  -0.00321  -0.00321  -2.10520
   D25       -0.00070  -0.00002   0.00000  -0.00011  -0.00011  -0.00080
   D26        3.13981   0.00004   0.00000   0.00036   0.00036   3.14017
   D27       -3.14145  -0.00002   0.00000  -0.00011  -0.00011  -3.14156
   D28       -0.00095   0.00004   0.00000   0.00036   0.00036  -0.00059
   D29       -3.14069  -0.00009   0.00000  -0.00085  -0.00085  -3.14154
   D30       -0.00021  -0.00005   0.00000  -0.00042  -0.00041  -0.00062
   D31       -0.00689  -0.00001   0.00000  -0.00004  -0.00004  -0.00693
   D32        3.13477   0.00003   0.00000   0.00027   0.00028   3.13505
   D33        3.14117   0.00003   0.00000   0.00030   0.00030   3.14148
   D34       -0.00086   0.00003   0.00000   0.00029   0.00030  -0.00057
   D35       -0.00049  -0.00000   0.00000  -0.00002  -0.00002  -0.00050
   D36        3.14066  -0.00000   0.00000  -0.00002  -0.00002   3.14064
   D37       -3.14092  -0.00003   0.00000  -0.00028  -0.00028  -3.14120
   D38        0.00006  -0.00002   0.00000  -0.00021  -0.00021  -0.00015
   D39        0.00073   0.00000   0.00000   0.00001   0.00001   0.00074
   D40       -3.14147   0.00001   0.00000   0.00009   0.00009  -3.14139
   D41       -0.00013   0.00000   0.00000   0.00001   0.00001  -0.00012
   D42        3.14145  -0.00000   0.00000  -0.00003  -0.00003   3.14142
   D43       -3.14129   0.00000   0.00000   0.00002   0.00002  -3.14127
   D44        0.00028  -0.00000   0.00000  -0.00002  -0.00002   0.00027
   D45       -0.00036  -0.00000   0.00000  -0.00001  -0.00001  -0.00037
   D46        3.14125  -0.00000   0.00000  -0.00003  -0.00003   3.14122
   D47       -3.14136  -0.00001   0.00000  -0.00008  -0.00008  -3.14143
   D48        0.00025  -0.00001   0.00000  -0.00010  -0.00010   0.00015
   D49       -0.00028   0.00000   0.00000   0.00001   0.00001  -0.00027
   D50        3.14137   0.00000   0.00000   0.00000   0.00000   3.14137
   D51        3.14130   0.00000   0.00000   0.00003   0.00003   3.14133
   D52       -0.00024   0.00000   0.00000   0.00002   0.00002  -0.00021
   D53        0.00051   0.00000   0.00000  -0.00000  -0.00000   0.00050
   D54       -3.14107   0.00001   0.00000   0.00004   0.00004  -3.14102
   D55       -3.14114   0.00000   0.00000   0.00000  -0.00000  -3.14114
   D56        0.00047   0.00001   0.00000   0.00004   0.00005   0.00051
   D57       -0.00029   0.00003   0.00000   0.00029   0.00029   0.00000
   D58       -3.14143  -0.00003   0.00000  -0.00026  -0.00026   3.14150
   D59        3.14136   0.00003   0.00000   0.00029   0.00029  -3.14154
   D60        0.00022  -0.00003   0.00000  -0.00026  -0.00026  -0.00004
   D61       -0.00036   0.00001   0.00000   0.00007   0.00007  -0.00029
   D62       -2.08571   0.00399   0.00000   0.01757   0.01836  -2.06736
   D63        2.08507  -0.00399   0.00000  -0.01750  -0.01829   2.06678
   D64        3.14121   0.00000   0.00000   0.00002   0.00002   3.14124
   D65        1.05586   0.00399   0.00000   0.01753   0.01831   1.07417
   D66       -1.05655  -0.00399   0.00000  -0.01755  -0.01833  -1.07488
         Item               Value     Threshold  Converged?
 Maximum Force            0.069002     0.000450     NO 
 RMS     Force            0.015234     0.000300     NO 
 Maximum Displacement     0.406523     0.001800     NO 
 RMS     Displacement     0.101402     0.001200     NO 
 Predicted change in Energy=-3.395850D-02
 GradGradGradGradGradGradGradGradGradGradGradGradGradGradGradGradGradGrad

                          Input orientation:                          
 ---------------------------------------------------------------------
 Center     Atomic      Atomic             Coordinates (Angstroms)
 Number     Number       Type             X           Y           Z
 ---------------------------------------------------------------------
      1          6           0       -1.931171    1.871665   -0.081770
      2          6           0       -0.565370    1.189925   -0.031284
      3          6           0        0.564844    2.214089   -0.049103
      4          7           0        1.854264    1.548355    0.001092
      5          6           0        3.026355    2.243138   -0.002437
      6          8           0        2.995814    3.489687   -0.051042
      7          7           0        4.140958    1.463973    0.050422
      8          6           0        5.413120    1.996824    0.055293
      9          6           0        5.725958    3.379354   -0.000333
     10          6           0        6.484579    1.088799    0.120519
     11          6           0        7.791155    1.532450    0.130652
     12          6           0        8.101955    2.896358    0.076306
     13          6           0        7.039682    3.840685    0.008871
     14          1           0       -2.732204    1.118715   -0.068092
     15          1           0       -2.035238    2.468097   -1.000573
     16          1           0       -2.067701    2.534930    0.785535
     17          1           0       -0.460601    0.517177   -0.897592
     18          1           0       -0.493256    0.584363    0.886416
     19          1           0        0.461817    2.887269    0.817762
     20          1           0        0.495743    2.819045   -0.968056
     21          1           0        1.884393    0.531275    0.040883
     22          1           0        4.935402    4.108972   -0.052052
     23          1           0        6.294145    0.022470    0.164372
     24          6           0        7.224204    5.342131   -0.055341
     25          9           0        6.040251    5.999909   -0.112955
     26          9           0        7.905377    5.739416   -1.160317
     27          9           0        7.854103    5.839851    1.039313
     28          7           0        9.504052    3.225371    0.094098
     29          8           0       10.294852    2.298652    0.154353
     30          8           0        9.849036    4.389242    0.049481
     31          1           0        8.585451    0.820363    0.181099
 ---------------------------------------------------------------------
                    Distance matrix (angstroms):
                    1          2          3          4          5
     1  C    0.000000
     2  C    1.527328   0.000000
     3  C    2.519605   1.525324   0.000000
     4  N    3.800120   2.446252   1.452007   0.000000
     5  C    4.972057   3.743072   2.462126   1.362547   0.000000
     6  O    5.185954   4.239261   2.745318   2.252693   1.247870
[...]
 .00000059,0.00000041,-0.00000047,-0.00000089,-0.00000215,-0.00000028,-
 0.00000240,-0.00000030,-0.00001673,0.00000452,0.00000515,-0.00001072,0
 .00000588,0.00000323,-0.00000592,0.00001655,0.00002948,0.00062102,0.00
 049969,0.00055133,0.00006412,-0.00007578,0.00016109,-0.15058719,-0.033
 30099,0.09766245,-0.08395341,0.01158181,0.03221314,0.23868344,-0.00000
 780,-0.00001583,-0.00001049,-0.00001137,0.00003545,0.00002519,0.000092
 58,-0.00009268,-0.00000226,-0.00052718,-0.00001367,-0.00019445,0.00126
 326,-0.00062446,-0.00013329,-0.00054326,0.00029880,0.00027682,-0.00143
 909,-0.00081355,0.00052727,-0.00003766,0.00125218,-0.00269696,0.002595
 30,-0.00483256,0.00218121,0.00053987,-0.00059174,0.00032274,-0.0006264
 9,-0.00116482,-0.00048480,0.00003446,0.00176431,-0.00017787,-0.0277476
 9,-0.00272028,0.02789954,-0.00000970,0.00000215,0.00000104,-0.00000072
 ,0.00000183,-0.00000015,-0.00000077,0.00000039,0.00000097,0.00000042,-
 0.00000245,-0.00000389,-0.00000074,-0.00000336,-0.00000137,-0.00004465
 ,0.00001074,0.00001529,-0.00002511,0.00001280,0.00000263,0.00000157,0.
 00004114,0.00004778,0.00003651,0.00045901,0.00084319,0.00001037,-0.000
 08351,0.00018104,-0.02862978,-0.08613197,0.03505458,0.01956362,0.01152
 047,-0.01024610,0.01863771,0.07540001,0.00000901,0.00001707,0.00001163
 ,0.00001094,-0.00003793,-0.00002842,-0.00010080,0.00009965,-0.00000327
 ,0.00059265,0.00001398,0.00023104,-0.00145185,0.00070475,0.00005810,0.
 00053204,-0.00035492,-0.00027039,0.00173605,0.00093176,-0.00031781,0.0
 0004293,-0.00174675,0.00151554,-0.00182478,0.00565419,-0.00205188,-0.0
 0035552,0.00033678,-0.00020809,0.00013725,0.00099053,0.00017511,0.0005
 4764,-0.00136095,0.00066314,0.02299897,0.00517561,-0.01306103,0.000011
 10,-0.00000207,-0.00000106,0.00000048,-0.00000178,-0.00000056,0.000000
 18,-0.00000079,-0.00000027,0.00000033,0.00000270,0.00000558,0.00000102
 ,0.00000425,0.00000114,0.00004964,-0.00001284,-0.00001656,0.00002716,-
 0.00001283,-0.00000421,-0.00000554,-0.00004694,-0.00005223,-0.00038055
 ,-0.00029294,-0.00035235,-0.00002531,0.00011072,-0.00010933,0.09273678
 ,0.04181408,-0.17154517,0.02084188,-0.00719737,0.01185919,-0.15536860,
 -0.02822784,0.25188714,-0.00000079,-0.00000138,-0.00000103,-0.00000104
 ,0.00000190,0.00000148,0.00000641,-0.00000479,-0.00001099,-0.00002380,
 -0.00000341,-0.00000714,0.00001855,0.00016211,0.00002934,-0.00011465,-
 0.00008650,0.00003559,0.00023614,-0.00020050,-0.00003428,-0.00012744,0
 .00083791,0.00049968,0.00066943,0.00025181,0.00037860,0.00104351,-0.00
 034288,-0.00005308,-0.00023630,-0.00139240,0.00046210,-0.00043628,-0.0
 0030208,-0.00026504,0.00586174,-0.00946484,-0.00726513,-0.00000114,-0.
 00000002,0.,0.00000033,-0.00000019,0.00000014,-0.00000002,0.00000023,0
 .00000046,-0.00000002,0.,0.00000016,-0.00000019,-0.00000084,0.00000003
 ,0.00000004,0.00000096,0.00000179,0.00000015,0.00000053,0.00000119,0.0
 0000146,0.00000072,0.00000209,0.00026209,0.00007647,-0.00045485,0.0000
 3319,-0.00003892,-0.00000665,-0.08132806,-0.03877455,-0.04086582,-0.03
 902337,-0.01825374,-0.05665728,0.00877811,0.01445527,0.02587307,0.1141
 2555,-0.00001160,-0.00002392,-0.00001600,-0.00001948,0.00005275,0.0000
 3622,0.00014341,-0.00015011,-0.00000411,-0.00079894,0.00002186,-0.0002
 5439,0.00193645,-0.00087582,0.00004036,-0.00076699,0.00052841,0.000368
 29,-0.00210653,-0.00129511,-0.00028043,0.00000576,0.00345015,0.0023120
 0,0.00340404,-0.00605934,0.00091964,0.00118675,-0.00088279,-0.00004560
 ,-0.00076944,-0.00185769,0.00146364,-0.00068339,0.00151013,0.00013251,
 -0.01721632,-0.02626982,-0.03426564,-0.00001476,0.00000357,0.00000156,
 -0.00000092,0.00000257,-0.00000050,-0.00000155,0.00000044,0.00000213,0
 .00000099,-0.00000324,-0.00000444,-0.00000046,-0.00000524,-0.00000169,
 -0.00006655,0.00001926,0.00002919,-0.00003600,0.00001746,0.00000304,0.
 00002930,0.00006446,0.00004846,0.00018725,-0.00017014,-0.00131913,0.00
 001924,-0.00018706,-0.00009325,-0.03635647,-0.16387338,-0.08765774,-0.
 00792897,0.01692823,-0.00374082,0.00912765,0.00761938,-0.02114503,0.04
 586940,0.17560256,-0.00000367,-0.00000693,-0.00000513,-0.00000669,0.00
 001610,0.00001022,0.00004753,-0.00004501,-0.00000872,-0.00024748,0.000
 00106,-0.00007546,0.00060734,-0.00026314,-0.00001740,-0.00026843,0.000
 15375,0.00016332,-0.00069949,-0.00040288,0.00001223,0.00009668,0.00070
 006,0.00023346,0.00076121,-0.00209976,0.00024659,0.00019791,-0.0001538
 5,-0.00002129,0.00025793,-0.00057617,0.00020386,-0.00048052,-0.0000266
 4,0.00019278,-0.00408061,-0.00707559,-0.00026116,-0.00000444,0.0000012
 7,0.00000055,0.00000004,0.00000030,-0.00000042,-0.00000106,0.00000002,
 0.00000137,0.00000059,-0.00000025,0.00000028,0.00000020,-0.00000203,-0
 .00000053,-0.00002044,0.00000562,0.00001103,-0.00001126,0.00000445,0.0
 0000062,0.00000669,0.00002228,0.00001304,0.00044022,0.00006806,-0.0002
 0774,0.00001806,-0.00007297,-0.00000047,-0.03831990,-0.09385751,-0.162
 84805,-0.05009535,-0.01166533,-0.03962409,0.01634275,-0.02973163,-0.07
 156030,0.07668157,0.14461657,0.27215661,0.00022990,0.00045207,0.000307
 50,0.00027329,-0.00104403,-0.00074273,-0.00275031,0.00292423,-0.001291
 18,0.01641092,-0.00020439,0.00540213,-0.04356688,0.03255147,-0.0004154
 5,0.00784423,-0.01808582,-0.00411978,0.07057158,0.00621606,0.00640473,
 -0.05863371,-0.02627436,-0.00157186,0.03032301,0.04396477,-0.00588816,
 0.04733861,-0.00967520,-0.00120860,-0.05138063,-0.06885303,0.00163354,
 -0.12205786,0.00505746,-0.00598725,-0.08452075,0.00440503,0.00079080,0
 .00028447,-0.00006504,-0.00002274,0.00001820,-0.00004648,0.00000040,0.
 00002075,-0.00001132,-0.00002220,-0.00002688,0.00006548,0.00012199,0.0
 0000766,0.00011049,0.00002657,0.00170967,-0.00039298,-0.00050539,0.000
 67862,-0.00024490,-0.00000294,-0.00043277,-0.00133405,-0.00081387,-0.0
 0079395,-0.00052654,-0.00118292,0.00034302,0.00128396,0.00076700,0.002
 85573,0.01128768,-0.00244111,0.00068993,-0.00331351,0.00125437,-0.0033
 3549,-0.00301917,0.00057539,-0.00407190,-0.00315888,-0.00159796,0.6312
 9699,0.00006113,0.00012043,0.00008408,0.00007483,-0.00028004,-0.000198
 77,-0.00075090,0.00080088,-0.00034831,0.00441201,-0.00004629,0.0014825
 1,-0.01169992,0.00856085,-0.00022384,0.00232910,-0.00465659,-0.0011426
 9,0.01865664,0.00225301,0.00139628,-0.01425150,-0.01103909,0.00049854,
 0.01419514,0.00811836,0.00061881,0.01224518,-0.01044255,0.00192906,-0.
 04835155,-0.01818022,-0.00416358,-0.00336363,-0.11767025,0.00642613,-0
 .00172556,0.01728643,-0.00137488,0.00007612,-0.00001785,-0.00000664,0.
 00000512,-0.00001359,0.00000085,0.00000618,-0.00000253,-0.00000665,-0.
 00000746,0.00001797,0.00003101,0.00000222,0.00002838,0.00000814,0.0004
 5919,-0.00010486,-0.00013660,0.00018238,-0.00007027,-0.00000154,-0.000
 11624,-0.00035056,-0.00022474,0.00084517,0.00076448,-0.00022218,-0.001
 68193,0.00012272,0.00046908,0.01693848,0.00158697,0.00073966,-0.002671
 36,-0.00026891,-0.00031464,-0.00851134,0.00098918,-0.00218537,-0.00555
 836,-0.00016755,-0.00169096,-0.05188870,0.86316972,0.00001184,0.000021
 77,0.00001316,0.00001650,-0.00005419,-0.00003961,-0.00016273,0.0001403
 3,-0.00002619,0.00086414,-0.00005684,0.00043076,-0.00230023,0.00205323
 ,-0.00047303,-0.00022021,-0.00121165,0.00009746,0.00405937,0.00038617,
 -0.00006396,-0.00327047,-0.00036270,-0.00226168,0.00006573,0.00364880,
 0.00496989,0.00285179,0.00217008,0.00648486,0.00451927,-0.00441213,-0.
 00658237,-0.00988998,0.00726568,-0.07249395,-0.00596007,-0.00535693,-0
 .01058860,0.00001413,-0.00000340,-0.00000106,0.00000154,-0.00000151,0.
 00000040,0.00000201,-0.00000048,-0.00000117,-0.00000224,0.00000189,0.0
 0000450,-0.00000247,0.00000456,0.00000022,0.00007103,-0.00002409,-0.00
 005052,0.00004751,-0.00000096,-0.00000151,-0.00003420,-0.00009893,-0.0
 0002838,-0.00003856,0.00037470,0.00271741,0.00031267,0.00042919,0.0018
 1096,0.00048205,0.00076899,-0.00214917,0.00010119,-0.00032761,0.000137
 38,-0.00137530,0.00096835,-0.00138363,-0.00057262,-0.00138682,-0.00016
 313,0.02220975,0.03521577,0.24650247,-0.00008653,-0.00017132,-0.000116
 28,-0.00010388,0.00039443,0.00027968,0.00103690,-0.00109607,0.00045446
 ,-0.00614151,0.00006957,-0.00207366,0.01614876,-0.01171913,0.00028177,
 -0.00323203,0.00644818,0.00164055,-0.02560112,-0.00263356,-0.00201364,
 0.02019587,0.01167834,-0.00034618,-0.01280746,-0.01243541,0.00048926,-
 0.01450069,0.00460305,-0.00029168,0.00769973,0.01682744,0.00063505,-0.
 09420375,0.02453241,-0.00404657,0.01679930,-0.01089368,0.00163155,-0.0
 0010801,0.00002431,0.00000861,-0.00000656,0.00001746,0.00000009,-0.000
 00791,0.00000459,0.00000871,0.00000929,-0.00002464,-0.00004635,-0.0000
 0334,-0.00004288,-0.00000987,-0.00063474,0.00014690,0.00018864,-0.0002
 5669,0.00009320,0.00000374,0.00015595,0.00049837,0.00031939,-0.0003494
 2,-0.00055796,0.00041595,-0.00010592,-0.00054559,-0.00017944,0.0012386
 7,-0.00550919,0.00201246,-0.00094332,0.00185093,-0.00083816,-0.0004374
 3,0.00191594,-0.00171207,-0.00017077,0.00232212,0.00051795,-0.29749382
 ,0.17478676,-0.00186414,0.36994915,0.00005207,0.00010343,0.00007057,0.
 00005982,-0.00023713,-0.00016833,-0.00061416,0.00064901,-0.00031968,0.
 00364245,-0.00008163,0.00123755,-0.00981002,0.00719954,-0.00004695,0.0
 0175481,-0.00395719,-0.00091138,0.01496801,0.00136598,0.00135223,-0.01
 274167,-0.00555251,-0.00068457,0.00525392,0.00858336,-0.00076150,0.009
 44440,-0.00059268,-0.00040447,-0.01427809,-0.01763172,0.00128952,0.042
 12095,0.01906991,0.00176715,-0.01277316,0.00325538,-0.00019903,0.00006
 473,-0.00001486,-0.00000485,0.00000423,-0.00001041,-0.00000019,0.00000
 463,-0.00000276,-0.00000517,-0.00000564,0.00001552,0.00002897,0.000001
 90,0.00002592,0.00000557,0.00039284,-0.00008737,-0.00010801,0.00015398
 ,-0.00005083,0.00000156,-0.00009557,-0.00030491,-0.00018492,-0.0001477
 0,0.00001854,-0.00028468,-0.00003576,0.00018846,0.00034495,-0.00413421
 ,0.00120411,-0.00171656,0.00089020,-0.00059305,0.00044703,0.00208292,-
 0.00108788,0.00161682,0.00224581,-0.00148908,0.00032011,0.15104124,-0.
 27643185,-0.00495933,-0.23606608,0.37692551,-0.00000453,-0.00000747,-0
 .00000616,-0.00000529,0.00001999,0.00001514,0.00005869,-0.00005644,0.0
 0002283,-0.00033918,0.00001094,-0.00015019,0.00093562,-0.00078081,0.00
 010462,0.00003002,0.00045301,-0.00000281,-0.00151125,-0.00021323,-0.00
 011532,0.00114843,0.00061676,0.00039140,-0.00056782,-0.00106408,-0.000
 63252,-0.00076544,-0.00023189,-0.00057693,0.00053931,0.00144620,0.0007
 6196,-0.00421820,0.00075717,0.01768269,0.00041129,0.00097561,0.0062471
 9,-0.00000548,0.00000133,0.00000033,-0.00000055,0.00000043,-0.00000010
 ,-0.00000080,0.00000006,0.00000049,0.00000085,-0.00000106,-0.00000178,
 0.00000057,-0.00000187,-0.00000022,-0.00003139,0.00000951,0.00001776,-
 0.00001506,0.00000185,0.00000014,0.00001302,0.00003514,0.00000955,-0.0
 0004498,-0.00022919,-0.00098302,-0.00004114,-0.00002737,-0.00005065,-0
 .00085343,-0.00016934,0.00074294,0.00015325,-0.00001638,-0.00004374,0.
 00116529,-0.00035321,0.00049184,-0.00005042,0.00036142,-0.00026241,0.0
 0148425,-0.00291396,-0.08142586,-0.00172228,0.01232626,0.03120943,-0.0
 0004652,-0.00009121,-0.00006172,-0.00005700,0.00021024,0.00014975,0.00
 055649,-0.00058970,0.00023523,-0.00331400,0.00003248,-0.00108495,0.008
 64106,-0.00638339,0.00004610,-0.00163898,0.00358815,0.00090947,-0.0141
 0560,-0.00100926,-0.00133467,0.01200777,0.00375447,0.00068372,-0.00468
 473,-0.00674282,0.00069741,-0.00880651,-0.00029140,0.00093185,0.000575
 63,0.01112562,-0.00287553,-0.02640107,-0.05992935,-0.00540672,0.009773
 29,-0.00364030,-0.00053438,-0.00005742,0.00001304,0.00000468,-0.000003
 52,0.00000941,-0.00000010,-0.00000425,0.00000231,0.00000463,0.00000540
 ,-0.00001289,-0.00002390,-0.00000146,-0.00002217,-0.00000547,-0.000336
 93,0.00007963,0.00010502,-0.00013767,0.00004947,0.00000158,0.00008577,
 0.00027030,0.00016220,-0.00004792,-0.00007293,0.00022131,-0.00077221,-
 0.00033383,0.00010451,0.00128426,-0.00292470,0.00293341,-0.00084231,0.
 00095181,-0.00070686,-0.00333224,0.00352350,-0.00551760,-0.00544671,0.
 00574774,-0.00011214,-0.13935689,-0.09617478,-0.01011568,0.02785157,0.
 06120677,0.00367561,0.14798653,-0.00008692,-0.00017267,-0.00011788,-0.
 00010514,0.00039707,0.00028308,0.00103097,-0.00110529,0.00051391,-0.00
 613447,0.00015536,-0.00201806,0.01627857,-0.01217247,-0.00001424,-0.00
 294867,0.00677087,0.00157846,-0.02577268,-0.00167262,-0.00240150,0.021
 31315,0.00825504,0.00114881,-0.01052324,-0.01359755,0.00148399,-0.0165
 2229,0.00379147,0.00054821,0.00957676,0.01947450,-0.00106106,-0.067849
 80,-0.05038309,-0.00816686,0.02218666,-0.00483295,0.00017787,-0.000107
 75,0.00002531,0.00000888,-0.00000738,0.00001862,-0.00000070,-0.0000080
 7,0.00000395,0.00000898,0.00001022,-0.00002586,-0.00004615,-0.00000273
 ,-0.00004083,-0.00001081,-0.00065330,0.00014630,0.00018493,-0.00025796
 ,0.00008945,-0.00000288,0.00016564,0.00050829,0.00030377,0.00016193,0.
 00001122,0.00038837,-0.00033257,-0.00041938,-0.00036394,-0.01159161,-0
 .00442470,-0.00113248,0.00201390,0.00069087,0.00023460,0.00951309,-0.0
 0110667,0.00502199,0.01067073,-0.00226016,0.00190711,-0.07468501,-0.46
 241842,-0.03475209,0.03645634,-0.11265873,-0.01086492,0.08796067,0.626
 31728,-0.00000506,-0.00001032,-0.00000581,-0.00000680,0.00002224,0.000
 01727,0.00005978,-0.00006133,0.00001185,-0.00035202,0.00001912,-0.0001
 2029,0.00088565,-0.00066862,0.00000264,-0.00014319,0.00037754,0.000077
 82,-0.00140091,-0.00014213,-0.00005964,0.00113609,0.00046420,0.0005336
 3,-0.00037714,-0.00091782,-0.00052058,-0.00059293,-0.00061380,-0.00065
 112,-0.00137385,0.00238861,0.00550431,-0.00409224,-0.00818172,0.018520
 76,0.00158348,0.00043635,0.00009611,-0.00000614,0.00000152,0.00000053,
 -0.00000060,0.00000081,-0.00000020,-0.00000056,0.00000023,0.00000072,0
 .00000025,-0.00000128,-0.00000217,-0.00000014,-0.00000250,-0.00000069,
 -0.00003361,0.00000849,0.00001411,-0.00001576,0.00000417,0.00000019,0.
 00001090,0.00003273,0.00001440,0.00002699,-0.00002355,-0.00015500,-0.0
 0014054,-0.00020737,-0.00089874,0.00253320,-0.00088194,-0.00299988,-0.
 00060409,0.00033458,0.00023784,-0.00845566,0.00395664,-0.00591984,0.00
 211387,-0.00032616,0.00175731,-0.01394803,-0.03388513,-0.08207731,0.00
 617644,-0.00995221,0.02601551,0.01708872,0.04783508,0.04067896,-0.0000
 0286,-0.00000569,-0.00000400,-0.00000920,0.00001360,0.00000794,0.00000
 608,-0.00003434,-0.00003596,-0.00014177,0.00007371,0.00003830,-0.00018
 350,-0.00019137,-0.00020582,-0.00002637,0.00009726,0.00007586,-0.00090
 141,0.00085843,0.00012533,-0.00226148,-0.00318657,-0.00006686,-0.00017
 779,-0.00049018,0.00015123,-0.01637021,0.01810832,-0.00432892,-0.22874
 077,0.14508386,-0.03783804,0.00911020,-0.00368576,0.00110462,-0.000036
 47,-0.00172745,-0.00003265,-0.00000311,0.00000066,0.00000042,0.0000000
 3,0.00000040,-0.00000005,-0.00000021,0.00000013,0.00000056,0.00000057,
 -0.00000019,-0.00000092,0.00000009,-0.00000125,0.00000011,-0.00000225,
 0.00000173,0.00000383,-0.00000451,0.00000527,0.00000122,0.00000435,0.0
 0000671,0.00001266,0.00003717,0.00012059,-0.00001022,0.00139978,0.0000
 8963,0.00027808,0.00046382,-0.00005415,0.00002408,0.00014504,-0.000242
 35,0.00012456,-0.00005807,0.00000078,0.00001811,-0.00005423,-0.0000428
 4,-0.00002723,-0.00247473,0.00147761,0.00017836,-0.00389028,-0.0046836
 3,0.00056105,0.00062615,0.00025097,-0.00006610,0.24354594,-0.00000203,
 -0.00000272,-0.00000217,-0.00000531,0.00000529,0.00000390,-0.00000634,
 -0.00002216,-0.00001051,-0.00006215,0.00005026,0.00004743,-0.00027158,
 0.00000761,-0.00026495,0.00000268,-0.00002453,0.00002467,-0.00017207,0
 .00060017,0.00003889,-0.00290257,-0.00071295,0.00164327,-0.00060594,0.
 00019999,-0.00023748,-0.01038198,0.01230486,-0.00167104,0.14316644,-0.
 17788706,0.03213172,0.02215176,-0.01391596,0.00449248,-0.00290916,-0.0
 0433078,0.00122286,-0.00000128,0.00000044,0.00000019,0.00000006,0.0000
 0008,0.00000003,0.00000006,0.00000002,0.00000002,0.00000049,-0.0000000
 8,-0.00000022,0.00000003,-0.00000021,-0.00000005,-0.00000040,0.0000003
 7,0.00000023,0.00000070,0.00000205,-0.00000006,0.00000118,0.00000372,0
 .00000245,0.00009570,0.00007314,-0.00006369,0.00037959,0.00053660,-0.0
 0109207,0.00116608,0.00078080,0.00005253,0.00038513,-0.00072189,0.0002
 9426,-0.00021846,-0.00012241,0.00013145,-0.00014848,-0.00025080,-0.000
 14611,0.00346347,-0.00165797,-0.00043985,-0.00097484,0.00217990,-0.000
 08447,-0.00030689,0.00063579,-0.00000643,-0.15184387,0.18226845,-0.000
 00140,-0.00000182,-0.00000356,-0.00000414,0.00000192,0.00000741,0.0000
 0090,-0.00005721,0.00004319,-0.00012449,0.00002474,0.00008635,-0.00009
 802,0.00011146,-0.00096373,0.00000107,-0.00017397,0.00005612,0.0004279
 7,0.00018389,-0.00015832,-0.00034995,0.00197365,0.00901854,-0.00048904
 ,-0.00054036,-0.00107950,0.00207481,0.00018915,0.00659643,-0.03819328,
 0.03184869,-0.04891547,-0.00459419,0.00299623,0.00383740,0.00044345,0.
 00095669,0.00333006,-0.00000134,0.00000065,-0.00000029,-0.00000022,0.0
 0000048,0.00000005,0.00000056,-0.00000018,-0.00000021,-0.00000018,-0.0
 0000043,-0.00000133,-0.00000018,0.00000003,0.00000012,-0.00001269,0.00
 000221,-0.00000081,0.00001066,0.00000386,-0.00000172,-0.00000253,0.000
 00557,-0.00001059,0.00003241,-0.00008594,-0.00028218,0.00020686,-0.000
 99966,-0.00536809,-0.00024977,0.00027474,0.00113072,0.00012262,-0.0001
 8352,-0.00016386,-0.00007783,-0.00003998,-0.00001305,0.00016316,0.0002
 0672,0.00005306,0.00078376,0.00014058,-0.00335834,0.00019604,-0.000096
 47,0.00053792,-0.00017547,-0.00067446,-0.00007267,0.03991046,-0.036067
 28,0.03569635\\-0.00000467,0.00000427,0.00000379,0.00001119,-0.0000038
 3,-0.00000742,-0.00000180,0.00000326,-0.00000131,0.00000557,-0.0000106
 2,0.00001197,-0.00002255,0.00001189,-0.00002276,0.00000460,-0.00000277
 ,0.00001330,0.00001984,-0.00000025,-0.00000391,-0.00002049,-0.00000040
 ,-0.00000151,-0.00000321,-0.00000083,-0.00000002,0.00001607,-0.0000040
 9,-0.00000657,-0.00001168,-0.00000524,-0.00000321,0.00000352,0.0000018
 6,-0.00001062,0.00000448,-0.00000216,-0.00000166,0.00000143,0.00000098
 ,-0.00000097,0.,0.00000024,0.00000423,0.00000207,-0.00000443,0.0000007
 7,-0.00000341,0.00000544,-0.00000095,-0.00000055,0.00000079,-0.0000057
 3,-0.00000113,-0.00000762,-0.00000083,0.00000301,0.00000175,0.00000698
 ,-0.00000229,0.00000010,-0.00000446,0.00000230,0.00000279,0.00000254,0
 .00000050,-0.00000207,-0.00001250,0.00000824,0.00001059,0.00001655,-0.
 00000596,0.00000228,0.00000387,-0.00001126,0.00000375,0.00000423,-0.00
 000149,0.00000424,0.00001422,-0.00000157,0.00000400,0.00001948,-0.0000
 0125,0.00000043,-0.00000857,0.00000664,-0.00001023,0.00000025,0.000003
 82,-0.00000414,-0.00000919\\\@


 IT PROBABLY IS NOT POSSIBLE FOR A SCIENTIST TO INTERROGATE NATURE 
 FROM A WHOLLY DISINTERESTED VIEWPOINT.
 EVEN IF HE HAS NO PARTICULAR AXE TO GRIND, HE IS LIKELY TO HAVE 
 A DISTINCTIVE WAY OF VIEWING NATURE.

                                                   -- JOHN LOSEE
 Job cpu time:       0 days  3 hours 47 minutes 57.7 seconds.
 File lengths (MBytes):  RWF=    655 Int=      0 D2E=      0 Chk=     22 Scr=      1
 Normal termination of Gaussian 09 at Tue Oct 30 16:17:08 2018.
WARNING: pbs_rusage is deprecated and values produced may not be accurate


=============================================================================
                                     Resource usage:
                                       CPU time:              24:20:36
   JobId:    1827577.r-man2            Elapsed time:          06:07:52
   Project:             q95            Requested time:        40:00:00
   Service Units:     24.52 
                                       Max physical memory:      841MB
                                       Max virtual memory:      1620MB
                                       Requested memory:           0MB

                                       Number of cpus:               4

                                       Max jobfs disk use:       0.6GB
                                       Requested jobfs:         20.0GB
=============================================================================

