 Entering Gaussian System, Link 0=/apps/gaussian/g09e01/g09/g09
 AtFile(1): /home/507/hio507/Basis/6-31pGd.gbs
 Initial command:
 /apps/gaussian/g09e01/g09/l1.exe "/jobfs/local/5914351.r-man2/Gau-50784.inp" -scrdir="/jobfs/local/5914351.r-man2/"
 Entering Link 1 = /apps/gaussian/g09e01/g09/l1.exe PID=     50785.
  
 Copyright (c) 1988,1990,1992,1993,1995,1998,2003,2009,2015,
            Gaussian, Inc.  All Rights Reserved.
  
 This is part of the Gaussian(R) 09 program.  It is based on
 the Gaussian(R) 03 system (copyright 2003, Gaussian, Inc.),
 the Gaussian(R) 98 system (copyright 1998, Gaussian, Inc.),
 the Gaussian(R) 94 system (copyright 1995, Gaussian, Inc.),
 the Gaussian 92(TM) system (copyright 1992, Gaussian, Inc.),
 the Gaussian 90(TM) system (copyright 1990, Gaussian, Inc.),
 the Gaussian 88(TM) system (copyright 1988, Gaussian, Inc.),
 the Gaussian 86(TM) system (copyright 1986, Carnegie Mellon
 University), and the Gaussian 82(TM) system (copyright 1983,
 Carnegie Mellon University). Gaussian is a federally registered
 trademark of Gaussian, Inc.
  
 This software contains proprietary and confidential information,
 including trade secrets, belonging to Gaussian, Inc.
  
 This software is provided under written license and may be
 used, copied, transmitted, or stored only in accord with that
 written license.
  
 The following legend is applicable only to US Government
 contracts under FAR:
  
                    RESTRICTED RIGHTS LEGEND
  
 Use, reproduction and disclosure by the US Government is
 subject to restrictions as set forth in subparagraphs (a)
 and (c) of the Commercial Computer Software - Restricted
 Rights clause in FAR 52.227-19.
  
 Gaussian, Inc.
 340 Quinnipiac St., Bldg. 40, Wallingford CT 06492
  
  
 ---------------------------------------------------------------
 Warning -- This program may not be used in any manner that
 competes with the business of Gaussian, Inc. or will provide
 assistance to any competitor of Gaussian, Inc.  The licensee
 of this program is prohibited from giving any competitor of
 Gaussian, Inc. access to this program.  By using this program,
 the user acknowledges that Gaussian, Inc. is engaged in the
 business of creating and licensing software in the field of
 computational chemistry and represents and warrants to the
 licensee that it is not a competitor of Gaussian, Inc. and that
 it will not use this program in any manner prohibited above.
 ---------------------------------------------------------------
  

 Cite this work as:
 Gaussian 09, Revision E.01,
 M. J. Frisch, G. W. Trucks, H. B. Schlegel, G. E. Scuseria, 
 M. A. Robb, J. R. Cheeseman, G. Scalmani, V. Barone, B. Mennucci, 
 G. A. Petersson, H. Nakatsuji, M. Caricato, X. Li, H. P. Hratchian, 
 A. F. Izmaylov, J. Bloino, G. Zheng, J. L. Sonnenberg, M. Hada, 
 M. Ehara, K. Toyota, R. Fukuda, J. Hasegawa, M. Ishida, T. Nakajima, 
 Y. Honda, O. Kitao, H. Nakai, T. Vreven, J. A. Montgomery, Jr., 
 J. E. Peralta, F. Ogliaro, M. Bearpark, J. J. Heyd, E. Brothers, 
 K. N. Kudin, V. N. Staroverov, T. Keith, R. Kobayashi, J. Normand, 
 K. Raghavachari, A. Rendell, J. C. Burant, S. S. Iyengar, J. Tomasi, 
 M. Cossi, N. Rega, J. M. Millam, M. Klene, J. E. Knox, J. B. Cross, 
 V. Bakken, C. Adamo, J. Jaramillo, R. Gomperts, R. E. Stratmann, 
 O. Yazyev, A. J. Austin, R. Cammi, C. Pomelli, J. W. Ochterski, 
 R. L. Martin, K. Morokuma, V. G. Zakrzewski, G. A. Voth, 
 P. Salvador, J. J. Dannenberg, S. Dapprich, A. D. Daniels, 
 O. Farkas, J. B. Foresman, J. V. Ortiz, J. Cioslowski, 
 and D. J. Fox, Gaussian, Inc., Wallingford CT, 2013.
 
 ******************************************
 Gaussian 09:  ES64L-G09RevE.01 30-Nov-2015
                20-Feb-2019 
 ******************************************
 %chk=Prop.M062X_6-31pGd_opt_water.chk
 %mem=196608000
 %nproc=4
 Will use up to    4 processors via shared memory.
 ----------------------------------------------------------------------
 # M062X/Gen 6D SCF=Tight INT(grid=ultrafine) OPT IOP(2/17=4) SCRF=(SMD
 ,Solvent=h2o) maxdisk=671088640
 ----------------------------------------------------------------------
 1/14=-1,18=20,19=15,26=4,38=1/1,3;
 2/9=110,12=2,17=4,18=5,40=1/2;
 3/5=7,8=2,11=2,16=1,25=1,30=1,70=32201,71=1,72=1,74=-55,75=-5/1,2,3;
 4//1;
 5/5=2,32=2,38=5,53=1/2;
 6/7=2,8=2,9=2,10=2,28=1/1;
 7//1,2,3,16;
 1/14=-1,18=20,19=15,26=4/3(2);
 2/9=110,17=4/2;
 99//99;
 2/9=110,17=4/2;
 3/5=7,6=1,8=2,11=2,16=1,25=1,30=1,70=32205,71=1,72=1,74=-55,75=-5,82=7/1,2,3;
 4/5=5,16=3,69=1/1;
 5/5=2,32=2,38=5,53=1/2;
 7//1,2,3,16;
 1/14=-1,18=20,19=15,26=4/3(-5);
 2/9=110,17=4/2;
 6/7=2,8=2,9=2,10=2,19=2,28=1/1;
 99/9=1/99;
 ----------------------------
 Prop.M062X_6-31pGd_opt_water
 ----------------------------
 Symbolic Z-matrix:
 Charge = -1 Multiplicity = 1
 C                    -5.35418  -2.18054  -0.00108 
 C                    -3.9831   -1.50776  -0.00631 
 C                    -2.81199  -2.46554  -0.00379 
 O                    -2.95761  -3.81098   0.00257 
 O                    -1.68328  -2.00141  -0.00768 
 H                    -6.14717  -1.40316  -0.00338 
 H                    -5.47772  -2.80286   0.91076 
 H                    -5.48059  -2.81116  -0.90681 
 H                    -3.90845  -0.85807   0.89223 
 H                    -3.91129  -0.86629  -0.91098 
 

 GradGradGradGradGradGradGradGradGradGradGradGradGradGradGradGradGradGrad
 Berny optimization.
 Initialization pass.
                           ----------------------------
                           !    Initial Parameters    !
                           ! (Angstroms and Degrees)  !
 --------------------------                            --------------------------
 ! Name  Definition              Value          Derivative Info.                !
 --------------------------------------------------------------------------------
 ! R1    R(1,2)                  1.5273         estimate D2E/DX2                !
 ! R2    R(1,6)                  1.1105         estimate D2E/DX2                !
 ! R3    R(1,7)                  1.1109         estimate D2E/DX2                !
 ! R4    R(1,8)                  1.1109         estimate D2E/DX2                !
 ! R5    R(2,3)                  1.5129         estimate D2E/DX2                !
 ! R6    R(2,9)                  1.1113         estimate D2E/DX2                !
 ! R7    R(2,10)                 1.1113         estimate D2E/DX2                !
 ! R8    R(3,4)                  1.3533         estimate D2E/DX2                !
 ! R9    R(3,5)                  1.2204         estimate D2E/DX2                !
 ! A1    A(2,1,6)              109.432          estimate D2E/DX2                !
 ! A2    A(2,1,7)              110.4527         estimate D2E/DX2                !
 ! A3    A(2,1,8)              110.4531         estimate D2E/DX2                !
 ! A4    A(6,1,7)              108.3282         estimate D2E/DX2                !
 ! A5    A(6,1,8)              108.3279         estimate D2E/DX2                !
 ! A6    A(7,1,8)              109.7908         estimate D2E/DX2                !
 ! A7    A(1,2,3)              114.5849         estimate D2E/DX2                !
 ! A8    A(1,2,9)              108.3646         estimate D2E/DX2                !
 ! A9    A(1,2,10)             108.3646         estimate D2E/DX2                !
 ! A10   A(3,2,9)              108.467          estimate D2E/DX2                !
 ! A11   A(3,2,10)             108.4667         estimate D2E/DX2                !
 ! A12   A(9,2,10)             108.445          estimate D2E/DX2                !
 ! A13   A(2,3,4)              123.1005         estimate D2E/DX2                !
 ! A14   A(2,3,5)              118.3691         estimate D2E/DX2                !
 ! A15   A(4,3,5)              118.5303         estimate D2E/DX2                !
 ! D1    D(6,1,2,3)           -179.9997         estimate D2E/DX2                !
 ! D2    D(6,1,2,9)             58.7411         estimate D2E/DX2                !
 ! D3    D(6,1,2,10)           -58.7407         estimate D2E/DX2                !
 ! D4    D(7,1,2,3)             60.8267         estimate D2E/DX2                !
 ! D5    D(7,1,2,9)            -60.4326         estimate D2E/DX2                !
 ! D6    D(7,1,2,10)          -177.9144         estimate D2E/DX2                !
 ! D7    D(8,1,2,3)            -60.8261         estimate D2E/DX2                !
 ! D8    D(8,1,2,9)            177.9146         estimate D2E/DX2                !
 ! D9    D(8,1,2,10)            60.4328         estimate D2E/DX2                !
 ! D10   D(1,2,3,4)              0.0002         estimate D2E/DX2                !
 ! D11   D(1,2,3,5)           -179.9997         estimate D2E/DX2                !
 ! D12   D(9,2,3,4)            121.2032         estimate D2E/DX2                !
 ! D13   D(9,2,3,5)            -58.7966         estimate D2E/DX2                !
 ! D14   D(10,2,3,4)          -121.2027         estimate D2E/DX2                !
 ! D15   D(10,2,3,5)            58.7975         estimate D2E/DX2                !
 --------------------------------------------------------------------------------
 Trust Radius=3.00D-01 FncErr=1.00D-07 GrdErr=1.00D-06
 Number of steps in this run=     49 maximum allowed number of steps=    100.
 GradGradGradGradGradGradGradGradGradGradGradGradGradGradGradGradGradGrad

                          Input orientation:                          
 ---------------------------------------------------------------------
 Center     Atomic      Atomic             Coordinates (Angstroms)
 Number     Number       Type             X           Y           Z
 ---------------------------------------------------------------------
      1          6           0       -5.354180   -2.180540   -0.001080
      2          6           0       -3.983100   -1.507760   -0.006310
      3          6           0       -2.811990   -2.465540   -0.003790
      4          8           0       -2.957610   -3.810980    0.002570
      5          8           0       -1.683280   -2.001410   -0.007680
      6          1           0       -6.147170   -1.403160   -0.003380
      7          1           0       -5.477720   -2.802860    0.910760
      8          1           0       -5.480590   -2.811160   -0.906810
      9          1           0       -3.908450   -0.858070    0.892230
     10          1           0       -3.911290   -0.866290   -0.910980
 ---------------------------------------------------------------------
                    Distance matrix (angstroms):
                    1          2          3          4          5
     1  C    0.000000
     2  C    1.527259   0.000000
     3  C    2.558117   1.512894   0.000000
     4  O    2.898602   2.521216   1.353312   0.000000
     5  O    3.675274   2.352204   1.220417   2.213270   0.000000
     6  H    1.110477   2.166598   3.500297   3.996364   4.503802
     7  H    1.110854   2.179952   2.838363   2.862179   3.985427
     8  H    1.110859   2.179961   2.838366   2.862174   3.985435
     9  H    2.153385   1.111325   2.142204   3.227270   2.658655
    10  H    2.153393   1.111336   2.142208   3.227271   2.658661
                    6          7          8          9         10
     6  H    0.000000
     7  H    1.800826   0.000000
     8  H    1.800827   1.817591   0.000000
     9  H    2.472065   2.499032   3.085892   0.000000
    10  H    2.472069   3.085894   2.499048   1.803231   0.000000
 Stoichiometry    C3H5O2(1-)
 Framework group  CS[SG(C3HO2),X(H4)]
 Deg. of freedom    15
 Full point group                 CS      NOp   2
 Largest Abelian subgroup         CS      NOp   2
 Largest concise Abelian subgroup CS      NOp   2
                         Standard orientation:                         
 ---------------------------------------------------------------------
 Center     Atomic      Atomic             Coordinates (Angstroms)
 Number     Number       Type             X           Y           Z
 ---------------------------------------------------------------------
      1          6           0        0.115047   -1.899281    0.000000
      2          6           0       -0.763382   -0.649928    0.000000
      3          6           0       -0.000000    0.656248   -0.000000
      4          8           0        1.351700    0.722280   -0.000000
      5          8           0       -0.634523    1.698744    0.000000
      6          1           0       -0.529125   -2.803825    0.000000
      7          1           0        0.753341   -1.925004    0.908802
      8          1           0        0.753341   -1.925004   -0.908802
      9          1           0       -1.412491   -0.678297    0.901606
     10          1           0       -1.412491   -0.678297   -0.901606
 ---------------------------------------------------------------------
 Rotational constants (GHZ):      9.8194255      3.9843908      2.9433764
 General basis read from cards:  (6D, 7F)
 There are    76 symmetry adapted cartesian basis functions of A'  symmetry.
 There are    29 symmetry adapted cartesian basis functions of A"  symmetry.
 There are    76 symmetry adapted basis functions of A'  symmetry.
 There are    29 symmetry adapted basis functions of A"  symmetry.
   105 basis functions,   180 primitive gaussians,   105 cartesian basis functions
    20 alpha electrons       20 beta electrons
       nuclear repulsion energy       166.9267513168 Hartrees.
 NAtoms=   10 NActive=   10 NUniq=    8 SFac= 1.56D+00 NAtFMM=   60 NAOKFM=F Big=F
 Integral buffers will be    131072 words long.
 Raffenetti 2 integral format.
 Two-electron integral symmetry is turned on.
 ------------------------------------------------------------------------------
 Polarizable Continuum Model (PCM)
 =================================
 Model                : PCM (using non-symmetric T matrix).
 Atomic radii         : SMD-Coulomb.
 Polarization charges : Total charges.
 Charge compensation  : None.
 Solution method      : On-the-fly selection.
 Cavity type          : VdW (van der Waals Surface) (Alpha=1.000).
 Cavity algorithm     : GePol (No added spheres)
                        Default sphere list used, NSphG=   10.
                        Lebedev-Laikov grids with approx.  5.0 points / Ang**2.
                        Smoothing algorithm: York/Karplus (Gamma=1.0000).
                        Polarization charges: spherical gaussians, with
                                              point-specific exponents (IZeta= 3).
                        Self-potential: point-specific (ISelfS= 7).
                        Self-field    : sphere-specific E.n sum rule (ISelfD= 2).
 1st derivatives      : Analytical E(r).r(x)/FMM algorithm (CHGder, D1EAlg=3).
                        Cavity 1st derivative terms included.
 Solvent              : Water, Eps=  78.355300 Eps(inf)=   1.777849
 ------------------------------------------------------------------------------
 Spheres list:
 ISph  on   Nord     Re0    Alpha      Xe            Ye            Ze
    1   C      1    1.8500  1.000      0.115047     -1.899281      0.000000
    2   C      2    1.8500  1.000     -0.763382     -0.649928      0.000000
    3   C      3    1.8500  1.000      0.000000      0.656248     -0.000000
    4   O      4    1.5200  1.000      1.351700      0.722280     -0.000000
    5   O      5    1.5200  1.000     -0.634523      1.698744      0.000000
    6   H      6    1.2000  1.000     -0.529125     -2.803825      0.000000
    7   H      7    1.2000  1.000      0.753341     -1.925004      0.908802
    8   H      8    1.2000  1.000      0.753341     -1.925004     -0.908802
    9   H      9    1.2000  1.000     -1.412491     -0.678297      0.901606
   10   H     10    1.2000  1.000     -1.412491     -0.678297     -0.901606
 ------------------------------------------------------------------------------
 ------------------------------------------------------------------------------
 Atomic radii for non-electrostatic terms: SMD-CDS.
 ------------------------------------------------------------------------------
 Nuclear repulsion after PCM non-electrostatic terms =      166.9326366389 Hartrees.
 One-electron integrals computed using PRISM.
 NBasis=   105 RedAO= T EigKep=  1.61D-04  NBF=    76    29
 NBsUse=   105 1.00D-06 EigRej= -1.00D+00 NBFU=    76    29
 ExpMin= 4.38D-02 ExpMax= 5.48D+03 ExpMxC= 8.25D+02 IAcc=3 IRadAn=         5 AccDes= 0.00D+00
 Harris functional with IExCor= 1009 and IRadAn=       5 diagonalized for initial guess.
 HarFok:  IExCor= 1009 AccDes= 0.00D+00 IRadAn=         5 IDoV= 1 UseB2=F ITyADJ=14
 ICtDFT=  3500011 ScaDFX=  1.000000  1.000000  1.000000  1.000000
 FoFCou: FMM=F IPFlag=           0 FMFlag=      100000 FMFlg1=           0
         NFxFlg=           0 DoJE=T BraDBF=F KetDBF=T FulRan=T
         wScrn=  0.000000 ICntrl=     500 IOpCl=  0 I1Cent=   200000004 NGrid=           0
         NMat0=    1 NMatS0=      1 NMatT0=    0 NMatD0=    1 NMtDS0=    0 NMtDT0=    0
 Petite list used in FoFCou.
 Initial guess orbital symmetries:
       Occupied  (A') (A') (A') (A') (A') (A') (A') (A') (A') (A')
                 (A") (A') (A') (A') (A") (A') (A") (A') (A") (A')
       Virtual   (A") (A') (A') (A") (A') (A') (A') (A") (A') (A')
                 (A") (A') (A") (A') (A') (A') (A') (A") (A') (A")
                 (A') (A') (A') (A') (A") (A') (A') (A') (A') (A')
                 (A') (A") (A') (A") (A') (A') (A") (A') (A') (A")
                 (A') (A") (A') (A') (A') (A') (A") (A") (A') (A')
                 (A') (A') (A") (A") (A') (A') (A') (A") (A') (A')
                 (A") (A') (A") (A') (A') (A') (A") (A') (A') (A")
                 (A") (A') (A') (A") (A') (A") (A') (A') (A') (A')
                 (A') (A') (A') (A') (A')
 The electronic state of the initial guess is 1-A'.
 Keep R1 ints in memory in symmetry-blocked form, NReq=23632887.
 Requested convergence on RMS density matrix=1.00D-08 within 128 cycles.
 Requested convergence on MAX density matrix=1.00D-06.
 Requested convergence on             energy=1.00D-06.
 No special actions if energy rises.
 Inv3:  Mode=1 IEnd=     2022123.
 Iteration    1 A*A^-1 deviation from unit magnitude is 3.33D-15 for    809.
 Iteration    1 A*A^-1 deviation from orthogonality  is 3.66D-15 for    821    171.
 Iteration    1 A^-1*A deviation from unit magnitude is 3.55D-15 for    809.
 Iteration    1 A^-1*A deviation from orthogonality  is 3.39D-11 for    813    793.
 Error on total polarization charges =  0.06094
 SCF Done:  E(RM062X) =  -267.832446223     A.U. after   12 cycles
            NFock= 12  Conv=0.80D-08     -V/T= 2.0093
 SMD-CDS (non-electrostatic) energy       (kcal/mol) =       3.69
 (included in total energy above)

 **********************************************************************

            Population analysis using the SCF density.

 **********************************************************************

 Orbital symmetries:
       Occupied  (A') (A') (A') (A') (A') (A') (A') (A') (A') (A')
                 (A") (A') (A') (A") (A') (A') (A") (A') (A") (A')
       Virtual   (A') (A') (A') (A") (A") (A') (A') (A") (A') (A")
                 (A') (A') (A') (A') (A") (A') (A") (A') (A') (A')
                 (A') (A") (A") (A') (A') (A') (A') (A') (A') (A')
                 (A") (A') (A') (A") (A') (A') (A") (A') (A') (A")
                 (A') (A") (A') (A') (A') (A') (A") (A') (A") (A')
                 (A') (A') (A") (A") (A') (A') (A') (A') (A") (A')
                 (A') (A") (A') (A") (A') (A') (A") (A') (A') (A")
                 (A") (A') (A') (A") (A') (A") (A') (A') (A') (A')
                 (A') (A') (A') (A') (A')
 The electronic state is 1-A'.
 Alpha  occ. eigenvalues --  -19.60245 -19.58777 -10.64691 -10.54243 -10.53082
 Alpha  occ. eigenvalues --   -1.16125  -1.03109  -0.85737  -0.71613  -0.58549
 Alpha  occ. eigenvalues --   -0.52595  -0.52339  -0.49718  -0.45716  -0.43628
 Alpha  occ. eigenvalues --   -0.40665  -0.39347  -0.32732  -0.32251  -0.30966
 Alpha virt. eigenvalues --    0.03394   0.04879   0.05721   0.06552   0.07981
 Alpha virt. eigenvalues --    0.08195   0.09392   0.09696   0.10316   0.11309
 Alpha virt. eigenvalues --    0.13330   0.15709   0.16358   0.23519   0.23808
 Alpha virt. eigenvalues --    0.24909   0.25222   0.27254   0.27795   0.28836
 Alpha virt. eigenvalues --    0.30629   0.30919   0.31515   0.32680   0.33888
 Alpha virt. eigenvalues --    0.37245   0.38763   0.40980   0.50257   0.53180
 Alpha virt. eigenvalues --    0.70582   0.71279   0.73897   0.74695   0.79057
 Alpha virt. eigenvalues --    0.81851   0.85823   0.89540   0.91671   1.00117
 Alpha virt. eigenvalues --    1.05490   1.06441   1.11671   1.15640   1.18275
 Alpha virt. eigenvalues --    1.19067   1.28058   1.35389   1.36281   1.38292
 Alpha virt. eigenvalues --    1.39629   1.40602   1.44836   1.53800   1.60793
 Alpha virt. eigenvalues --    1.62318   1.65371   1.81626   1.82735   1.86897
 Alpha virt. eigenvalues --    1.89737   1.91424   1.95707   1.96782   2.04652
 Alpha virt. eigenvalues --    2.09438   2.10088   2.12401   2.21982   2.32955
 Alpha virt. eigenvalues --    2.35018   2.36364   2.53285   2.55128   2.62317
 Alpha virt. eigenvalues --    2.70669   2.83619   2.99969   3.14990   3.18084
 Alpha virt. eigenvalues --    4.14975   4.24776   4.38834   4.41987   4.63768
          Condensed to atoms (all electrons):
               1          2          3          4          5          6
     1  C    5.624997  -0.021509  -0.074175   0.034781   0.033229   0.390502
     2  C   -0.021509   6.185737   0.047626  -0.167722  -0.239169  -0.060084
     3  C   -0.074175   0.047626   4.725886   0.340083   0.433071   0.015862
     4  O    0.034781  -0.167722   0.340083   8.859708  -0.176086   0.000809
     5  O    0.033229  -0.239169   0.433071  -0.176086   8.656182  -0.000280
     6  H    0.390502  -0.060084   0.015862   0.000809  -0.000280   0.494524
     7  H    0.405457  -0.043935  -0.013590  -0.001347  -0.000078  -0.025350
     8  H    0.405457  -0.043935  -0.013590  -0.001347  -0.000078  -0.025350
     9  H   -0.045316   0.400885  -0.038541   0.001955  -0.003210  -0.002469
    10  H   -0.045316   0.400885  -0.038541   0.001955  -0.003210  -0.002469
               7          8          9         10
     1  C    0.405457   0.405457  -0.045316  -0.045316
     2  C   -0.043935  -0.043935   0.400885   0.400885
     3  C   -0.013590  -0.013590  -0.038541  -0.038541
     4  O   -0.001347  -0.001347   0.001955   0.001955
     5  O   -0.000078  -0.000078  -0.003210  -0.003210
     6  H   -0.025350  -0.025350  -0.002469  -0.002469
     7  H    0.488207  -0.026210  -0.004092   0.003496
     8  H   -0.026210   0.488207   0.003496  -0.004092
     9  H   -0.004092   0.003496   0.462375  -0.022559
    10  H    0.003496  -0.004092  -0.022559   0.462375
 Mulliken charges:
               1
     1  C   -0.708107
     2  C   -0.458779
     3  C    0.615909
     4  O   -0.892787
     5  O   -0.700373
     6  H    0.214305
     7  H    0.217441
     8  H    0.217441
     9  H    0.247475
    10  H    0.247475
 Sum of Mulliken charges =  -1.00000
 Mulliken charges with hydrogens summed into heavy atoms:
               1
     1  C   -0.058920
     2  C    0.036171
     3  C    0.615909
     4  O   -0.892787
     5  O   -0.700373
 Electronic spatial extent (au):  <R**2>=            446.5788
 Charge=             -1.0000 electrons
 Dipole moment (field-independent basis, Debye):
    X=             -4.1454    Y=             -7.7731    Z=             -0.0000  Tot=              8.8094
 Quadrupole moment (field-independent basis, Debye-Ang):
   XX=            -42.5137   YY=            -44.9118   ZZ=            -31.4250
   XY=              0.4927   XZ=              0.0000   YZ=              0.0000
 Traceless Quadrupole moment (field-independent basis, Debye-Ang):
   XX=             -2.8968   YY=             -5.2950   ZZ=              8.1918
   XY=              0.4927   XZ=              0.0000   YZ=              0.0000
 Octapole moment (field-independent basis, Debye-Ang**2):
  XXX=            -13.2447  YYY=            -19.1204  ZZZ=             -0.0000  XYY=              1.0919
  XXY=             -9.4426  XXZ=             -0.0000  XZZ=             -1.6833  YZZ=             -0.1243
  YYZ=             -0.0000  XYZ=              0.0000
 Hexadecapole moment (field-independent basis, Debye-Ang**3):
 XXXX=           -191.1274 YYYY=           -429.2163 ZZZZ=            -46.9948 XXXY=             -8.4833
 XXXZ=              0.0000 YYYX=              7.9610 YYYZ=              0.0000 ZZZX=              0.0000
 ZZZY=              0.0000 XXYY=           -103.6487 XXZZ=            -35.3845 YYZZ=            -72.9563
 XXYZ=              0.0000 YYXZ=             -0.0000 ZZXY=             -2.0553
 N-N= 1.669326366389D+02 E-N=-9.695726938108D+02  KE= 2.653601734998D+02
 Symmetry A'   KE= 2.537328702199D+02
 Symmetry A"   KE= 1.162730327985D+01
 D1PCM: PCM CHGder 1st derivatives, ID1Alg=3 FixD1E=F DoIter=F DoCFld=F I1PDM=0.
 Calling FoFJK, ICntrl=      2127 FMM=F ISym2X=1 I1Cent= 0 IOpClX= 0 NMat=1 NMatS=1 NMatT=0.
 ***** Axes restored to original set *****
 -------------------------------------------------------------------
 Center     Atomic                   Forces (Hartrees/Bohr)
 Number     Number              X              Y              Z
 -------------------------------------------------------------------
      1        6          -0.006312655   -0.001082053    0.000014876
      2        6          -0.016208963    0.000963355    0.000021147
      3        6          -0.017606704   -0.079500107    0.000390013
      4        8          -0.013875267    0.057849211   -0.000241753
      5        8           0.040553549    0.029417413   -0.000197944
      6        1           0.005980302   -0.008256086    0.000028200
      7        1          -0.000520314    0.004357974   -0.010388292
      8        1          -0.000487642    0.004452475    0.010349731
      9        1           0.004223356   -0.004145898   -0.009820546
     10        1           0.004254338   -0.004056286    0.009844566
 -------------------------------------------------------------------
 Cartesian Forces:  Max     0.079500107 RMS     0.021295887

 GradGradGradGradGradGradGradGradGradGradGradGradGradGradGradGradGradGrad
 Berny optimization.
 FormGI is forming the generalized inverse of G from B-inverse, IUseBI=4.
 Internal  Forces:  Max     0.056074363 RMS     0.013873691
 Search for a local minimum.
 Step number   1 out of a maximum of   49
 All quantities printed in internal units (Hartrees-Bohrs-Radians)
 Mixed Optimization -- RFO/linear search
 Second derivative matrix not updated -- first step.
 ITU=  0
     Eigenvalues ---    0.00405   0.00595   0.00595   0.03989   0.05459
     Eigenvalues ---    0.05617   0.05804   0.09592   0.13000   0.16000
     Eigenvalues ---    0.16000   0.16000   0.22061   0.25000   0.25000
     Eigenvalues ---    0.29678   0.31061   0.32460   0.32460   0.32510
     Eigenvalues ---    0.32510   0.32550   0.54323   0.95199
 RFO step:  Lambda=-1.57015625D-02 EMin= 4.05360551D-03
 Linear search not attempted -- first point.
 Iteration  1 RMS(Cart)=  0.04284830 RMS(Int)=  0.00155511
 Iteration  2 RMS(Cart)=  0.00158874 RMS(Int)=  0.00028512
 Iteration  3 RMS(Cart)=  0.00000339 RMS(Int)=  0.00028511
 Iteration  4 RMS(Cart)=  0.00000000 RMS(Int)=  0.00028511
 ClnCor:  largest displacement from symmetrization is 6.37D-09 for atom     8.
 Variable       Old X    -DE/DX   Delta X   Delta X   Delta X     New X
                                 (Linear)    (Quad)   (Total)
    R1        2.88610   0.00150   0.00000   0.00481   0.00481   2.89091
    R2        2.09850  -0.01009   0.00000  -0.02956  -0.02956   2.06894
    R3        2.09921  -0.01089   0.00000  -0.03194  -0.03194   2.06727
    R4        2.09921  -0.01089   0.00000  -0.03194  -0.03194   2.06727
    R5        2.85895   0.00204   0.00000   0.00626   0.00626   2.86522
    R6        2.10010  -0.01008   0.00000  -0.02961  -0.02961   2.07049
    R7        2.10010  -0.01008   0.00000  -0.02961  -0.02961   2.07049
    R8        2.55739  -0.05607   0.00000  -0.10032  -0.10032   2.45706
    R9        2.30625   0.04873   0.00000   0.05036   0.05036   2.35661
    A1        1.90995   0.00193   0.00000   0.01383   0.01369   1.92364
    A2        1.92776   0.00246   0.00000   0.01259   0.01252   1.94028
    A3        1.92776   0.00246   0.00000   0.01259   0.01252   1.94028
    A4        1.89068  -0.00178   0.00000  -0.00734  -0.00747   1.88320
    A5        1.89068  -0.00178   0.00000  -0.00734  -0.00747   1.88320
    A6        1.91623  -0.00345   0.00000  -0.02496  -0.02496   1.89127
    A7        1.99988   0.00310   0.00000   0.01785   0.01785   2.01774
    A8        1.89132   0.00295   0.00000   0.03038   0.03044   1.92176
    A9        1.89132   0.00295   0.00000   0.03038   0.03044   1.92176
   A10        1.89311  -0.00370   0.00000  -0.02759  -0.02811   1.86500
   A11        1.89311  -0.00370   0.00000  -0.02759  -0.02811   1.86500
   A12        1.89271  -0.00186   0.00000  -0.02598  -0.02713   1.86558
   A13        2.14851  -0.02490   0.00000  -0.09371  -0.09371   2.05480
   A14        2.06593  -0.00124   0.00000  -0.00468  -0.00468   2.06126
   A15        2.06874   0.02614   0.00000   0.09839   0.09839   2.16713
    D1       -3.14159   0.00000   0.00000   0.00000  -0.00000   3.14159
    D2        1.02522   0.00051   0.00000   0.00120   0.00116   1.02638
    D3       -1.02522  -0.00051   0.00000  -0.00120  -0.00116  -1.02638
    D4        1.06163  -0.00052   0.00000  -0.00730  -0.00734   1.05429
    D5       -1.05475  -0.00001   0.00000  -0.00611  -0.00617  -1.06092
    D6       -3.10518  -0.00104   0.00000  -0.00850  -0.00850  -3.11368
    D7       -1.06163   0.00052   0.00000   0.00730   0.00734  -1.05429
    D8        3.10518   0.00104   0.00000   0.00850   0.00850   3.11368
    D9        1.05475   0.00001   0.00000   0.00611   0.00617   1.06092
   D10        0.00000  -0.00000   0.00000  -0.00000  -0.00000   0.00000
   D11       -3.14159  -0.00000   0.00000  -0.00000  -0.00000   3.14159
   D12        2.11540   0.00315   0.00000   0.03067   0.03011   2.14551
   D13       -1.02620   0.00315   0.00000   0.03067   0.03011  -0.99608
   D14       -2.11540  -0.00315   0.00000  -0.03067  -0.03011  -2.14551
   D15        1.02620  -0.00315   0.00000  -0.03067  -0.03011   0.99608
         Item               Value     Threshold  Converged?
 Maximum Force            0.056074     0.000450     NO 
 RMS     Force            0.013874     0.000300     NO 
 Maximum Displacement     0.152782     0.001800     NO 
 RMS     Displacement     0.042514     0.001200     NO 
 Predicted change in Energy=-8.197860D-03
 GradGradGradGradGradGradGradGradGradGradGradGradGradGradGradGradGradGrad

                          Input orientation:                          
 ---------------------------------------------------------------------
 Center     Atomic      Atomic             Coordinates (Angstroms)
 Number     Number       Type             X           Y           Z
 ---------------------------------------------------------------------
      1          6           0       -5.358645   -2.189978   -0.001033
      2          6           0       -3.982538   -1.521698   -0.006246
      3          6           0       -2.795763   -2.465332   -0.003816
      4          8           0       -3.038459   -3.742688    0.002388
      5          8           0       -1.651349   -1.969883   -0.007876
      6          1           0       -6.147788   -1.431089   -0.003248
      7          1           0       -5.492542   -2.811682    0.889074
      8          1           0       -5.495337   -2.819767   -0.885010
      9          1           0       -3.875091   -0.873805    0.870764
     10          1           0       -3.877864   -0.881827   -0.889458
 ---------------------------------------------------------------------
                    Distance matrix (angstroms):
                    1          2          3          4          5
     1  C    0.000000
     2  C    1.529803   0.000000
     3  C    2.577633   1.516208   0.000000
     4  O    2.791807   2.413329   1.300223   0.000000
     5  O    3.713830   2.373882   1.247064   2.251004   0.000000
     6  H    1.094835   2.167147   3.507952   3.874461   4.528607
     7  H    1.093953   2.178479   2.861788   2.770471   4.033350
     8  H    1.093953   2.178479   2.861788   2.770471   4.033350
     9  H    2.166396   1.095654   2.112533   3.111996   2.630289
    10  H    2.166396   1.095654   2.112533   3.111996   2.630289
                    6          7          8          9         10
     6  H    0.000000
     7  H    1.769639   0.000000
     8  H    1.769639   1.774104   0.000000
     9  H    2.497922   2.524253   3.081348   0.000000
    10  H    2.497922   3.081348   2.524253   1.760243   0.000000
 Stoichiometry    C3H5O2(1-)
 Framework group  CS[SG(C3HO2),X(H4)]
 Deg. of freedom    15
 Full point group                 CS      NOp   2
 Largest Abelian subgroup         CS      NOp   2
 Largest concise Abelian subgroup CS      NOp   2
                         Standard orientation:                         
 ---------------------------------------------------------------------
 Center     Atomic      Atomic             Coordinates (Angstroms)
 Number     Number       Type             X           Y           Z
 ---------------------------------------------------------------------
      1          6           0        0.168960   -1.890315   -0.000000
      2          6           0       -0.725768   -0.649446    0.000000
      3          6           0        0.000000    0.681774    0.000000
      4          8           0        1.300074    0.662089   -0.000000
      5          8           0       -0.684666    1.724080    0.000000
      6          1           0       -0.443108   -2.798080   -0.000000
      7          1           0        0.808653   -1.916119    0.887052
      8          1           0        0.808653   -1.916119   -0.887052
      9          1           0       -1.378306   -0.655557    0.880122
     10          1           0       -1.378306   -0.655557   -0.880122
 ---------------------------------------------------------------------
 Rotational constants (GHZ):     10.2107604      3.9890547      2.9747182
 Basis read from rwf:  (6D, 7F)
 There are    76 symmetry adapted cartesian basis functions of A'  symmetry.
 There are    29 symmetry adapted cartesian basis functions of A"  symmetry.
 There are    76 symmetry adapted basis functions of A'  symmetry.
 There are    29 symmetry adapted basis functions of A"  symmetry.
   105 basis functions,   180 primitive gaussians,   105 cartesian basis functions
    20 alpha electrons       20 beta electrons
       nuclear repulsion energy       167.9674929910 Hartrees.
 NAtoms=   10 NActive=   10 NUniq=    8 SFac= 1.56D+00 NAtFMM=   60 NAOKFM=F Big=F
 Integral buffers will be    131072 words long.
 Raffenetti 2 integral format.
 Two-electron integral symmetry is turned on.
 ------------------------------------------------------------------------------
 Polarizable Continuum Model (PCM)
 =================================
 Model                : PCM (using non-symmetric T matrix).
 Atomic radii         : SMD-Coulomb.
 Polarization charges : Total charges.
 Charge compensation  : None.
 Solution method      : On-the-fly selection.
 Cavity type          : VdW (van der Waals Surface) (Alpha=1.000).
 Cavity algorithm     : GePol (No added spheres)
                        Default sphere list used, NSphG=   10.
                        Lebedev-Laikov grids with approx.  5.0 points / Ang**2.
                        Smoothing algorithm: York/Karplus (Gamma=1.0000).
                        Polarization charges: spherical gaussians, with
                                              point-specific exponents (IZeta= 3).
                        Self-potential: point-specific (ISelfS= 7).
                        Self-field    : sphere-specific E.n sum rule (ISelfD= 2).
 1st derivatives      : Analytical E(r).r(x)/FMM algorithm (CHGder, D1EAlg=3).
                        Cavity 1st derivative terms included.
 Solvent              : Water, Eps=  78.355300 Eps(inf)=   1.777849
 ------------------------------------------------------------------------------
 Spheres list:
 ISph  on   Nord     Re0    Alpha      Xe            Ye            Ze
    1   C      1    1.8500  1.000      0.168960     -1.890315     -0.000000
    2   C      2    1.8500  1.000     -0.725768     -0.649446      0.000000
    3   C      3    1.8500  1.000     -0.000000      0.681774      0.000000
    4   O      4    1.5200  1.000      1.300074      0.662089     -0.000000
    5   O      5    1.5200  1.000     -0.684666      1.724080      0.000000
    6   H      6    1.2000  1.000     -0.443108     -2.798080     -0.000000
    7   H      7    1.2000  1.000      0.808653     -1.916119      0.887052
    8   H      8    1.2000  1.000      0.808653     -1.916119     -0.887052
    9   H      9    1.2000  1.000     -1.378306     -0.655557      0.880122
   10   H     10    1.2000  1.000     -1.378306     -0.655557     -0.880122
 ------------------------------------------------------------------------------
 ------------------------------------------------------------------------------
 Atomic radii for non-electrostatic terms: SMD-CDS.
 ------------------------------------------------------------------------------
 Nuclear repulsion after PCM non-electrostatic terms =      167.9737571187 Hartrees.
 One-electron integrals computed using PRISM.
 NBasis=   105 RedAO= T EigKep=  1.66D-04  NBF=    76    29
 NBsUse=   105 1.00D-06 EigRej= -1.00D+00 NBFU=    76    29
 Initial guess from the checkpoint file:  "Prop.M062X_6-31pGd_opt_water.chk"
 B after Tr=     0.000001   -0.000000    0.000000
         Rot=    0.999973    0.000000    0.000000   -0.007319 Ang=  -0.84 deg.
 Initial guess orbital symmetries:
       Occupied  (A') (A') (A') (A') (A') (A') (A') (A') (A') (A')
                 (A") (A') (A') (A") (A') (A') (A") (A') (A") (A')
       Virtual   (A') (A') (A') (A') (A') (A') (A') (A') (A') (A')
                 (A') (A') (A') (A') (A') (A') (A') (A') (A') (A')
                 (A') (A') (A') (A') (A') (A') (A') (A') (A') (A')
                 (A') (A') (A') (A') (A') (A') (A') (A') (A') (A')
                 (A') (A') (A') (A') (A') (A') (A') (A') (A') (A')
                 (A') (A') (A') (A') (A') (A') (A') (A') (A') (A')
                 (A") (A") (A") (A") (A") (A") (A") (A") (A") (A")
                 (A") (A") (A") (A") (A") (A") (A") (A") (A") (A")
                 (A") (A") (A") (A") (A")
 ExpMin= 4.38D-02 ExpMax= 5.48D+03 ExpMxC= 8.25D+02 IAcc=2 IRadAn=         4 AccDes= 0.00D+00
 Harris functional with IExCor= 1009 and IRadAn=       4 diagonalized for initial guess.
 HarFok:  IExCor= 1009 AccDes= 0.00D+00 IRadAn=         4 IDoV= 1 UseB2=F ITyADJ=14
 ICtDFT=  3500011 ScaDFX=  1.000000  1.000000  1.000000  1.000000
 FoFCou: FMM=F IPFlag=           0 FMFlag=      100000 FMFlg1=           0
         NFxFlg=           0 DoJE=T BraDBF=F KetDBF=T FulRan=T
         wScrn=  0.000000 ICntrl=     500 IOpCl=  0 I1Cent=   200000004 NGrid=           0
         NMat0=    1 NMatS0=      1 NMatT0=    0 NMatD0=    1 NMtDS0=    0 NMtDT0=    0
 Petite list used in FoFCou.
 Keep R1 ints in memory in symmetry-blocked form, NReq=23632887.
 Requested convergence on RMS density matrix=1.00D-08 within 128 cycles.
 Requested convergence on MAX density matrix=1.00D-06.
 Requested convergence on             energy=1.00D-06.
 No special actions if energy rises.
 Inv3:  Mode=1 IEnd=     2017200.
 Iteration    1 A*A^-1 deviation from unit magnitude is 3.33D-15 for    810.
 Iteration    1 A*A^-1 deviation from orthogonality  is 2.86D-15 for    666    245.
 Iteration    1 A^-1*A deviation from unit magnitude is 3.33D-15 for    810.
 Iteration    1 A^-1*A deviation from orthogonality  is 2.68D-14 for    516    460.
 Error on total polarization charges =  0.06045
 SCF Done:  E(RM062X) =  -267.842064733     A.U. after   12 cycles
            NFock= 12  Conv=0.38D-08     -V/T= 2.0089
 SMD-CDS (non-electrostatic) energy       (kcal/mol) =       3.93
 (included in total energy above)
 D1PCM: PCM CHGder 1st derivatives, ID1Alg=3 FixD1E=F DoIter=F DoCFld=F I1PDM=0.
 Calling FoFJK, ICntrl=      2127 FMM=F ISym2X=1 I1Cent= 0 IOpClX= 0 NMat=1 NMatS=1 NMatT=0.
 ***** Axes restored to original set *****
 -------------------------------------------------------------------
 Center     Atomic                   Forces (Hartrees/Bohr)
 Number     Number              X              Y              Z
 -------------------------------------------------------------------
      1        6           0.003143598    0.002621913   -0.000016901
      2        6          -0.007669200    0.000571302    0.000009479
      3        6          -0.018728551   -0.041030946    0.000216481
      4        8           0.008043021    0.028545955   -0.000142753
      5        8           0.014366228    0.006507856   -0.000052289
      6        1           0.000052246    0.000203425   -0.000001009
      7        1           0.000056673   -0.000471548   -0.000289064
      8        1           0.000057590   -0.000468895    0.000293169
      9        1           0.000338538    0.001758559   -0.000427624
     10        1           0.000339858    0.001762379    0.000410511
 -------------------------------------------------------------------
 Cartesian Forces:  Max     0.041030946 RMS     0.010401942

 GradGradGradGradGradGradGradGradGradGradGradGradGradGradGradGradGradGrad
 Berny optimization.
 Using GEDIIS/GDIIS optimizer.
 FormGI is forming the generalized inverse of G from B-inverse, IUseBI=4.
 Internal  Forces:  Max     0.029567182 RMS     0.005585236
 Search for a local minimum.
 Step number   2 out of a maximum of   49
 All quantities printed in internal units (Hartrees-Bohrs-Radians)
 Mixed Optimization -- RFO/linear search
 Update second derivatives using D2CorX and points    1    2
 DE= -9.62D-03 DEPred=-8.20D-03 R= 1.17D+00
 TightC=F SS=  1.41D+00  RLast= 2.13D-01 DXNew= 5.0454D-01 6.3989D-01
 Trust test= 1.17D+00 RLast= 2.13D-01 DXMaxT set to 5.05D-01
 ITU=  1  0
 Use linear search instead of GDIIS.
     Eigenvalues ---    0.00405   0.00595   0.00595   0.03820   0.05234
     Eigenvalues ---    0.05507   0.05642   0.09951   0.13141   0.15987
     Eigenvalues ---    0.16000   0.16026   0.22010   0.24523   0.27215
     Eigenvalues ---    0.29986   0.30347   0.32460   0.32468   0.32510
     Eigenvalues ---    0.32540   0.34987   0.41663   0.90814
 RFO step:  Lambda=-2.46619544D-03 EMin= 4.05360551D-03
 Quartic linear search produced a step of  0.24353.
 Iteration  1 RMS(Cart)=  0.01357742 RMS(Int)=  0.00013628
 Iteration  2 RMS(Cart)=  0.00016180 RMS(Int)=  0.00007581
 Iteration  3 RMS(Cart)=  0.00000002 RMS(Int)=  0.00007581
 ClnCor:  largest displacement from symmetrization is 1.95D-08 for atom     8.
 Variable       Old X    -DE/DX   Delta X   Delta X   Delta X     New X
                                 (Linear)    (Quad)   (Total)
    R1        2.89091  -0.00378   0.00117  -0.01622  -0.01505   2.87586
    R2        2.06894   0.00009  -0.00720   0.00352  -0.00367   2.06526
    R3        2.06727   0.00004  -0.00778   0.00358  -0.00420   2.06307
    R4        2.06727   0.00004  -0.00778   0.00358  -0.00420   2.06307
    R5        2.86522   0.00658   0.00153   0.02544   0.02696   2.89218
    R6        2.07049   0.00073  -0.00721   0.00597  -0.00124   2.06925
    R7        2.07049   0.00073  -0.00721   0.00597  -0.00124   2.06925
    R8        2.45706  -0.02957  -0.02443  -0.05766  -0.08209   2.37498
    R9        2.35661   0.01578   0.01226   0.01604   0.02831   2.38491
    A1        1.92364  -0.00015   0.00333  -0.00178   0.00151   1.92515
    A2        1.94028   0.00015   0.00305  -0.00121   0.00182   1.94210
    A3        1.94028   0.00015   0.00305  -0.00121   0.00182   1.94210
    A4        1.88320   0.00016  -0.00182   0.00345   0.00159   1.88480
    A5        1.88320   0.00016  -0.00182   0.00345   0.00159   1.88480
    A6        1.89127  -0.00046  -0.00608  -0.00244  -0.00852   1.88275
    A7        2.01774  -0.00000   0.00435   0.00166   0.00596   2.02369
    A8        1.92176   0.00038   0.00741  -0.00089   0.00652   1.92828
    A9        1.92176   0.00038   0.00741  -0.00089   0.00652   1.92828
   A10        1.86500   0.00009  -0.00684   0.00722   0.00020   1.86520
   A11        1.86500   0.00009  -0.00684   0.00722   0.00020   1.86520
   A12        1.86558  -0.00105  -0.00661  -0.01550  -0.02237   1.84321
   A13        2.05480   0.00449  -0.02282   0.03295   0.01013   2.06493
   A14        2.06126  -0.00260  -0.00114  -0.01224  -0.01338   2.04788
   A15        2.16713  -0.00189   0.02396  -0.02071   0.00325   2.17038
    D1        3.14159   0.00000  -0.00000   0.00000   0.00000   3.14159
    D2        1.02638  -0.00042   0.00028  -0.01003  -0.00977   1.01661
    D3       -1.02638   0.00042  -0.00028   0.01003   0.00977  -1.01661
    D4        1.05429  -0.00019  -0.00179  -0.00238  -0.00417   1.05012
    D5       -1.06092  -0.00061  -0.00150  -0.01241  -0.01394  -1.07486
    D6       -3.11368   0.00022  -0.00207   0.00765   0.00560  -3.10808
    D7       -1.05429   0.00019   0.00179   0.00238   0.00417  -1.05012
    D8        3.11368  -0.00022   0.00207  -0.00765  -0.00560   3.10808
    D9        1.06092   0.00061   0.00150   0.01241   0.01394   1.07486
   D10        0.00000  -0.00000   0.00000   0.00000   0.00000   0.00000
   D11        3.14159  -0.00000  -0.00000   0.00000   0.00000   3.14159
   D12        2.14551   0.00056   0.00733   0.00549   0.01269   2.15819
   D13       -0.99608   0.00056   0.00733   0.00549   0.01269  -0.98340
   D14       -2.14551  -0.00056  -0.00733  -0.00549  -0.01269  -2.15819
   D15        0.99608  -0.00056  -0.00733  -0.00549  -0.01269   0.98340
         Item               Value     Threshold  Converged?
 Maximum Force            0.029567     0.000450     NO 
 RMS     Force            0.005585     0.000300     NO 
 Maximum Displacement     0.040851     0.001800     NO 
 RMS     Displacement     0.013506     0.001200     NO 
 Predicted change in Energy=-1.678928D-03
 GradGradGradGradGradGradGradGradGradGradGradGradGradGradGradGradGradGrad

                          Input orientation:                          
 ---------------------------------------------------------------------
 Center     Atomic      Atomic             Coordinates (Angstroms)
 Number     Number       Type             X           Y           Z
 ---------------------------------------------------------------------
      1          6           0       -5.364011   -2.186827   -0.001039
      2          6           0       -3.990453   -1.531610   -0.006188
      3          6           0       -2.793494   -2.485358   -0.003728
      4          8           0       -3.016841   -3.722121    0.002260
      5          8           0       -1.641615   -1.969694   -0.007893
      6          1           0       -6.147591   -1.424983   -0.003276
      7          1           0       -5.502243   -2.810126    0.884548
      8          1           0       -5.505024   -2.818169   -0.880468
      9          1           0       -3.875677   -0.875455    0.862896
     10          1           0       -3.878425   -0.883404   -0.881573
 ---------------------------------------------------------------------
                    Distance matrix (angstroms):
                    1          2          3          4          5
     1  C    0.000000
     2  C    1.521840   0.000000
     3  C    2.587795   1.530475   0.000000
     4  O    2.804700   2.397151   1.256783   0.000000
     5  O    3.728730   2.389344   1.262043   2.227634   0.000000
     6  H    1.092891   2.159773   3.517721   3.883101   4.538783
     7  H    1.091730   2.171065   2.869117   2.790590   4.050584
     8  H    1.091730   2.171065   2.869117   2.790590   4.050584
     9  H    2.163612   1.094998   2.124604   3.095449   2.635653
    10  H    2.163612   1.094998   2.124604   3.095449   2.635653
                    6          7          8          9         10
     6  H    0.000000
     7  H    1.767293   0.000000
     8  H    1.767293   1.765036   0.000000
     9  H    2.492755   2.527675   3.077049   0.000000
    10  H    2.492755   3.077049   2.527675   1.744489   0.000000
 Stoichiometry    C3H5O2(1-)
 Framework group  CS[SG(C3HO2),X(H4)]
 Deg. of freedom    15
 Full point group                 CS      NOp   2
 Largest Abelian subgroup         CS      NOp   2
 Largest concise Abelian subgroup CS      NOp   2
                         Standard orientation:                         
 ---------------------------------------------------------------------
 Center     Atomic      Atomic             Coordinates (Angstroms)
 Number     Number       Type             X           Y           Z
 ---------------------------------------------------------------------
      1          6           0        0.224277   -1.894409    0.000000
      2          6           0       -0.693682   -0.680594   -0.000000
      3          6           0        0.000000    0.683649   -0.000000
      4          8           0        1.256430    0.713465    0.000000
      5          8           0       -0.736691    1.708363   -0.000000
      6          1           0       -0.364512   -2.815135    0.000000
      7          1           0        0.866867   -1.905083    0.882518
      8          1           0        0.866867   -1.905083   -0.882518
      9          1           0       -1.355353   -0.700602    0.872245
     10          1           0       -1.355353   -0.700602   -0.872245
 ---------------------------------------------------------------------
 Rotational constants (GHZ):     10.4586206      3.9482042      2.9707692
 Basis read from rwf:  (6D, 7F)
 There are    76 symmetry adapted cartesian basis functions of A'  symmetry.
 There are    29 symmetry adapted cartesian basis functions of A"  symmetry.
 There are    76 symmetry adapted basis functions of A'  symmetry.
 There are    29 symmetry adapted basis functions of A"  symmetry.
   105 basis functions,   180 primitive gaussians,   105 cartesian basis functions
    20 alpha electrons       20 beta electrons
       nuclear repulsion energy       168.4027218029 Hartrees.
 NAtoms=   10 NActive=   10 NUniq=    8 SFac= 1.56D+00 NAtFMM=   60 NAOKFM=F Big=F
 Integral buffers will be    131072 words long.
 Raffenetti 2 integral format.
 Two-electron integral symmetry is turned on.
 ------------------------------------------------------------------------------
 Polarizable Continuum Model (PCM)
 =================================
 Model                : PCM (using non-symmetric T matrix).
 Atomic radii         : SMD-Coulomb.
 Polarization charges : Total charges.
 Charge compensation  : None.
 Solution method      : On-the-fly selection.
 Cavity type          : VdW (van der Waals Surface) (Alpha=1.000).
 Cavity algorithm     : GePol (No added spheres)
                        Default sphere list used, NSphG=   10.
                        Lebedev-Laikov grids with approx.  5.0 points / Ang**2.
                        Smoothing algorithm: York/Karplus (Gamma=1.0000).
                        Polarization charges: spherical gaussians, with
                                              point-specific exponents (IZeta= 3).
                        Self-potential: point-specific (ISelfS= 7).
                        Self-field    : sphere-specific E.n sum rule (ISelfD= 2).
 1st derivatives      : Analytical E(r).r(x)/FMM algorithm (CHGder, D1EAlg=3).
                        Cavity 1st derivative terms included.
 Solvent              : Water, Eps=  78.355300 Eps(inf)=   1.777849
 ------------------------------------------------------------------------------
 Spheres list:
 ISph  on   Nord     Re0    Alpha      Xe            Ye            Ze
    1   C      1    1.8500  1.000      0.224277     -1.894409      0.000000
    2   C      2    1.8500  1.000     -0.693682     -0.680594     -0.000000
    3   C      3    1.8500  1.000      0.000000      0.683649     -0.000000
    4   O      4    1.5200  1.000      1.256430      0.713465      0.000000
    5   O      5    1.5200  1.000     -0.736691      1.708363     -0.000000
    6   H      6    1.2000  1.000     -0.364512     -2.815135      0.000000
    7   H      7    1.2000  1.000      0.866867     -1.905083      0.882518
    8   H      8    1.2000  1.000      0.866867     -1.905083     -0.882518
    9   H      9    1.2000  1.000     -1.355353     -0.700602      0.872245
   10   H     10    1.2000  1.000     -1.355353     -0.700602     -0.872245
 ------------------------------------------------------------------------------
 ------------------------------------------------------------------------------
 Atomic radii for non-electrostatic terms: SMD-CDS.
 ------------------------------------------------------------------------------
 Nuclear repulsion after PCM non-electrostatic terms =      168.4091631921 Hartrees.
 One-electron integrals computed using PRISM.
 NBasis=   105 RedAO= T EigKep=  1.70D-04  NBF=    76    29
 NBsUse=   105 1.00D-06 EigRej= -1.00D+00 NBFU=    76    29
 Initial guess from the checkpoint file:  "Prop.M062X_6-31pGd_opt_water.chk"
 B after Tr=     0.000000    0.000000   -0.000000
         Rot=    0.999872    0.000000   -0.000000   -0.016009 Ang=  -1.83 deg.
 Initial guess orbital symmetries:
       Occupied  (A') (A') (A') (A') (A') (A') (A') (A') (A') (A')
                 (A") (A') (A') (A") (A') (A') (A") (A") (A') (A')
       Virtual   (A') (A') (A') (A') (A') (A') (A') (A') (A') (A')
                 (A') (A') (A') (A') (A') (A') (A') (A') (A') (A')
                 (A') (A') (A') (A') (A') (A') (A') (A') (A') (A')
                 (A') (A') (A') (A') (A') (A') (A') (A') (A') (A')
                 (A') (A') (A') (A') (A') (A') (A') (A') (A') (A')
                 (A') (A') (A') (A') (A') (A') (A') (A') (A') (A')
                 (A") (A") (A") (A") (A") (A") (A") (A") (A") (A")
                 (A") (A") (A") (A") (A") (A") (A") (A") (A") (A")
                 (A") (A") (A") (A") (A")
 ExpMin= 4.38D-02 ExpMax= 5.48D+03 ExpMxC= 8.25D+02 IAcc=2 IRadAn=         4 AccDes= 0.00D+00
 Harris functional with IExCor= 1009 and IRadAn=       4 diagonalized for initial guess.
 HarFok:  IExCor= 1009 AccDes= 0.00D+00 IRadAn=         4 IDoV= 1 UseB2=F ITyADJ=14
 ICtDFT=  3500011 ScaDFX=  1.000000  1.000000  1.000000  1.000000
 FoFCou: FMM=F IPFlag=           0 FMFlag=      100000 FMFlg1=           0
         NFxFlg=           0 DoJE=T BraDBF=F KetDBF=T FulRan=T
         wScrn=  0.000000 ICntrl=     500 IOpCl=  0 I1Cent=   200000004 NGrid=           0
         NMat0=    1 NMatS0=      1 NMatT0=    0 NMatD0=    1 NMtDS0=    0 NMtDT0=    0
 Petite list used in FoFCou.
 Keep R1 ints in memory in symmetry-blocked form, NReq=23632887.
 Requested convergence on RMS density matrix=1.00D-08 within 128 cycles.
 Requested convergence on MAX density matrix=1.00D-06.
 Requested convergence on             energy=1.00D-06.
 No special actions if energy rises.
 Inv3:  Mode=1 IEnd=     2007372.
 Iteration    1 A*A^-1 deviation from unit magnitude is 2.55D-15 for    792.
 Iteration    1 A*A^-1 deviation from orthogonality  is 1.97D-15 for    455    304.
 Iteration    1 A^-1*A deviation from unit magnitude is 2.89D-15 for    380.
 Iteration    1 A^-1*A deviation from orthogonality  is 9.74D-13 for    813    802.
 Error on total polarization charges =  0.06046
 SCF Done:  E(RM062X) =  -267.843485445     A.U. after   11 cycles
            NFock= 11  Conv=0.68D-08     -V/T= 2.0086
 SMD-CDS (non-electrostatic) energy       (kcal/mol) =       4.04
 (included in total energy above)
 D1PCM: PCM CHGder 1st derivatives, ID1Alg=3 FixD1E=F DoIter=F DoCFld=F I1PDM=0.
 Calling FoFJK, ICntrl=      2127 FMM=F ISym2X=1 I1Cent= 0 IOpClX= 0 NMat=1 NMatS=1 NMatT=0.
 ***** Axes restored to original set *****
 -------------------------------------------------------------------
 Center     Atomic                   Forces (Hartrees/Bohr)
 Number     Number              X              Y              Z
 -------------------------------------------------------------------
      1        6           0.002119251    0.000556447   -0.000005875
      2        6           0.001430410    0.001942713   -0.000011106
      3        6          -0.007639436    0.002244079    0.000001810
      4        8          -0.000789560   -0.010147467    0.000047485
      5        8           0.006063216    0.005020889   -0.000032432
      6        1          -0.000957838    0.000848191   -0.000002356
      7        1          -0.000227949   -0.001088574    0.001500811
      8        1          -0.000232661   -0.001102203   -0.001490102
      9        1           0.000119063    0.000868110    0.001125503
     10        1           0.000115503    0.000857815   -0.001133738
 -------------------------------------------------------------------
 Cartesian Forces:  Max     0.010147467 RMS     0.002899842

 GradGradGradGradGradGradGradGradGradGradGradGradGradGradGradGradGradGrad
 Berny optimization.
 Using GEDIIS/GDIIS optimizer.
 FormGI is forming the generalized inverse of G from B-inverse, IUseBI=4.
 Internal  Forces:  Max     0.010121144 RMS     0.002315455
 Search for a local minimum.
 Step number   3 out of a maximum of   49
 All quantities printed in internal units (Hartrees-Bohrs-Radians)
 Mixed Optimization -- RFO/linear search
 Update second derivatives using D2CorX and points    1    2    3
 DE= -1.42D-03 DEPred=-1.68D-03 R= 8.46D-01
 TightC=F SS=  1.41D+00  RLast= 1.04D-01 DXNew= 8.4853D-01 3.1272D-01
 Trust test= 8.46D-01 RLast= 1.04D-01 DXMaxT set to 5.05D-01
 ITU=  1  1  0
 Use linear search instead of GDIIS.
     Eigenvalues ---    0.00405   0.00595   0.00595   0.03736   0.05243
     Eigenvalues ---    0.05502   0.05610   0.10069   0.13205   0.15983
     Eigenvalues ---    0.16000   0.16013   0.21644   0.22972   0.28292
     Eigenvalues ---    0.29952   0.31187   0.32460   0.32495   0.32510
     Eigenvalues ---    0.32538   0.36910   0.50175   0.88746
 RFO step:  Lambda=-2.73317339D-04 EMin= 4.05360551D-03
 Quartic linear search produced a step of -0.13451.
 Iteration  1 RMS(Cart)=  0.00598455 RMS(Int)=  0.00001782
 Iteration  2 RMS(Cart)=  0.00002588 RMS(Int)=  0.00000375
 Iteration  3 RMS(Cart)=  0.00000000 RMS(Int)=  0.00000375
 ClnCor:  largest displacement from symmetrization is 7.86D-09 for atom     5.
 Variable       Old X    -DE/DX   Delta X   Delta X   Delta X     New X
                                 (Linear)    (Quad)   (Total)
    R1        2.87586  -0.00029   0.00202  -0.00320  -0.00118   2.87468
    R2        2.06526   0.00127   0.00049   0.00236   0.00286   2.06812
    R3        2.06307   0.00187   0.00057   0.00380   0.00436   2.06743
    R4        2.06307   0.00187   0.00057   0.00380   0.00436   2.06743
    R5        2.89218  -0.00006  -0.00363   0.00427   0.00064   2.89282
    R6        2.06925   0.00143   0.00017   0.00316   0.00332   2.07257
    R7        2.06925   0.00143   0.00017   0.00316   0.00332   2.07257
    R8        2.37498   0.01012   0.01104   0.00197   0.01301   2.38798
    R9        2.38491   0.00759  -0.00381   0.01148   0.00768   2.39259
    A1        1.92515   0.00011  -0.00020   0.00145   0.00125   1.92640
    A2        1.94210  -0.00002  -0.00025   0.00021  -0.00003   1.94207
    A3        1.94210  -0.00002  -0.00025   0.00021  -0.00003   1.94207
    A4        1.88480  -0.00003  -0.00021   0.00038   0.00017   1.88496
    A5        1.88480  -0.00003  -0.00021   0.00038   0.00017   1.88496
    A6        1.88275  -0.00002   0.00115  -0.00271  -0.00156   1.88119
    A7        2.02369  -0.00221  -0.00080  -0.00757  -0.00836   2.01533
    A8        1.92828   0.00057  -0.00088   0.00382   0.00294   1.93122
    A9        1.92828   0.00057  -0.00088   0.00382   0.00294   1.93122
   A10        1.86520   0.00075  -0.00003   0.00217   0.00215   1.86735
   A11        1.86520   0.00075  -0.00003   0.00217   0.00215   1.86735
   A12        1.84321  -0.00028   0.00301  -0.00435  -0.00135   1.84186
   A13        2.06493   0.00331  -0.00136   0.01162   0.01026   2.07519
   A14        2.04788  -0.00418   0.00180  -0.01637  -0.01457   2.03331
   A15        2.17038   0.00086  -0.00044   0.00475   0.00431   2.17469
    D1        3.14159   0.00000   0.00000  -0.00000   0.00000   3.14159
    D2        1.01661   0.00017   0.00131  -0.00036   0.00096   1.01757
    D3       -1.01661  -0.00017  -0.00131   0.00036  -0.00096  -1.01757
    D4        1.05012  -0.00002   0.00056  -0.00157  -0.00101   1.04911
    D5       -1.07486   0.00015   0.00188  -0.00193  -0.00005  -1.07492
    D6       -3.10808  -0.00020  -0.00075  -0.00121  -0.00197  -3.11005
    D7       -1.05012   0.00002  -0.00056   0.00157   0.00101  -1.04911
    D8        3.10808   0.00020   0.00075   0.00121   0.00197   3.11005
    D9        1.07486  -0.00015  -0.00188   0.00193   0.00005   1.07492
   D10       -0.00000   0.00000   0.00000  -0.00000   0.00000   0.00000
   D11        3.14159  -0.00000   0.00000   0.00000   0.00000   3.14159
   D12        2.15819  -0.00019  -0.00171   0.00149  -0.00022   2.15798
   D13       -0.98340  -0.00019  -0.00171   0.00149  -0.00022  -0.98361
   D14       -2.15819   0.00019   0.00171  -0.00149   0.00022  -2.15798
   D15        0.98340   0.00019   0.00171  -0.00149   0.00022   0.98361
         Item               Value     Threshold  Converged?
 Maximum Force            0.010121     0.000450     NO 
 RMS     Force            0.002315     0.000300     NO 
 Maximum Displacement     0.022831     0.001800     NO 
 RMS     Displacement     0.005994     0.001200     NO 
 Predicted change in Energy=-1.739174D-04
 GradGradGradGradGradGradGradGradGradGradGradGradGradGradGradGradGradGrad

                          Input orientation:                          
 ---------------------------------------------------------------------
 Center     Atomic      Atomic             Coordinates (Angstroms)
 Number     Number       Type             X           Y           Z
 ---------------------------------------------------------------------
      1          6           0       -5.361806   -2.185955   -0.001046
      2          6           0       -3.990128   -1.528252   -0.006204
      3          6           0       -2.798989   -2.489798   -0.003699
      4          8           0       -3.018701   -3.734203    0.002318
      5          8           0       -1.647692   -1.963001   -0.007913
      6          1           0       -6.148948   -1.425614   -0.003271
      7          1           0       -5.498652   -2.811653    0.885914
      8          1           0       -5.501437   -2.819708   -0.881831
      9          1           0       -3.873135   -0.870804    0.863824
     10          1           0       -3.875887   -0.878762   -0.882552
 ---------------------------------------------------------------------
                    Distance matrix (angstroms):
                    1          2          3          4          5
     1  C    0.000000
     2  C    1.521217   0.000000
     3  C    2.580767   1.530813   0.000000
     4  O    2.808420   2.410387   1.263667   0.000000
     5  O    3.720807   2.382439   1.266104   2.239850   0.000000
     6  H    1.094402   2.161261   3.514927   3.889481   4.533224
     7  H    1.094039   2.172243   2.860626   2.789623   4.043394
     8  H    1.094039   2.172243   2.860626   2.789623   4.043394
     9  H    2.166509   1.096756   2.127799   3.109872   2.627817
    10  H    2.166509   1.096756   2.127799   3.109872   2.627817
                    6          7          8          9         10
     6  H    0.000000
     7  H    1.770491   0.000000
     8  H    1.770491   1.767765   0.000000
     9  H    2.497797   2.531736   3.081705   0.000000
    10  H    2.497797   3.081705   2.531736   1.746397   0.000000
 Stoichiometry    C3H5O2(1-)
 Framework group  CS[SG(C3HO2),X(H4)]
 Deg. of freedom    15
 Full point group                 CS      NOp   2
 Largest Abelian subgroup         CS      NOp   2
 Largest concise Abelian subgroup CS      NOp   2
                         Standard orientation:                         
 ---------------------------------------------------------------------
 Center     Atomic      Atomic             Coordinates (Angstroms)
 Number     Number       Type             X           Y           Z
 ---------------------------------------------------------------------
      1          6           0        0.233078   -1.889481   -0.000000
      2          6           0       -0.694251   -0.683594   -0.000000
      3          6           0       -0.000000    0.680739    0.000000
      4          8           0        1.262950    0.723293    0.000000
      5          8           0       -0.753649    1.698105    0.000000
      6          1           0       -0.347923   -2.816926   -0.000000
      7          1           0        0.877786   -1.894415    0.883882
      8          1           0        0.877786   -1.894415   -0.883882
      9          1           0       -1.357507   -0.705705    0.873198
     10          1           0       -1.357507   -0.705705   -0.873198
 ---------------------------------------------------------------------
 Rotational constants (GHZ):     10.3041751      3.9653663      2.9680848
 Basis read from rwf:  (6D, 7F)
 There are    76 symmetry adapted cartesian basis functions of A'  symmetry.
 There are    29 symmetry adapted cartesian basis functions of A"  symmetry.
 There are    76 symmetry adapted basis functions of A'  symmetry.
 There are    29 symmetry adapted basis functions of A"  symmetry.
   105 basis functions,   180 primitive gaussians,   105 cartesian basis functions
    20 alpha electrons       20 beta electrons
       nuclear repulsion energy       168.1104763395 Hartrees.
 NAtoms=   10 NActive=   10 NUniq=    8 SFac= 1.56D+00 NAtFMM=   60 NAOKFM=F Big=F
 Integral buffers will be    131072 words long.
 Raffenetti 2 integral format.
 Two-electron integral symmetry is turned on.
 ------------------------------------------------------------------------------
 Polarizable Continuum Model (PCM)
 =================================
 Model                : PCM (using non-symmetric T matrix).
 Atomic radii         : SMD-Coulomb.
 Polarization charges : Total charges.
 Charge compensation  : None.
 Solution method      : On-the-fly selection.
 Cavity type          : VdW (van der Waals Surface) (Alpha=1.000).
 Cavity algorithm     : GePol (No added spheres)
                        Default sphere list used, NSphG=   10.
                        Lebedev-Laikov grids with approx.  5.0 points / Ang**2.
                        Smoothing algorithm: York/Karplus (Gamma=1.0000).
                        Polarization charges: spherical gaussians, with
                                              point-specific exponents (IZeta= 3).
                        Self-potential: point-specific (ISelfS= 7).
                        Self-field    : sphere-specific E.n sum rule (ISelfD= 2).
 1st derivatives      : Analytical E(r).r(x)/FMM algorithm (CHGder, D1EAlg=3).
                        Cavity 1st derivative terms included.
 Solvent              : Water, Eps=  78.355300 Eps(inf)=   1.777849
 ------------------------------------------------------------------------------
 Spheres list:
 ISph  on   Nord     Re0    Alpha      Xe            Ye            Ze
    1   C      1    1.8500  1.000      0.233078     -1.889481     -0.000000
    2   C      2    1.8500  1.000     -0.694251     -0.683594      0.000000
    3   C      3    1.8500  1.000     -0.000000      0.680739      0.000000
    4   O      4    1.5200  1.000      1.262950      0.723293      0.000000
    5   O      5    1.5200  1.000     -0.753649      1.698105      0.000000
    6   H      6    1.2000  1.000     -0.347923     -2.816926     -0.000000
    7   H      7    1.2000  1.000      0.877786     -1.894415      0.883882
    8   H      8    1.2000  1.000      0.877786     -1.894415     -0.883882
    9   H      9    1.2000  1.000     -1.357507     -0.705705      0.873198
   10   H     10    1.2000  1.000     -1.357507     -0.705705     -0.873198
 ------------------------------------------------------------------------------
 ------------------------------------------------------------------------------
 Atomic radii for non-electrostatic terms: SMD-CDS.
 ------------------------------------------------------------------------------
 Nuclear repulsion after PCM non-electrostatic terms =      168.1168693317 Hartrees.
 One-electron integrals computed using PRISM.
 NBasis=   105 RedAO= T EigKep=  1.69D-04  NBF=    76    29
 NBsUse=   105 1.00D-06 EigRej= -1.00D+00 NBFU=    76    29
 Initial guess from the checkpoint file:  "Prop.M062X_6-31pGd_opt_water.chk"
 B after Tr=     0.000000   -0.000000    0.000000
         Rot=    0.999995    0.000000   -0.000000   -0.003061 Ang=  -0.35 deg.
 Initial guess orbital symmetries:
       Occupied  (A') (A') (A') (A') (A') (A') (A') (A') (A') (A')
                 (A') (A") (A') (A") (A') (A') (A") (A") (A') (A')
       Virtual   (A') (A') (A') (A') (A') (A') (A') (A') (A') (A')
                 (A') (A') (A') (A') (A') (A') (A') (A') (A') (A')
                 (A') (A') (A') (A') (A') (A') (A') (A') (A') (A')
                 (A') (A') (A') (A') (A') (A') (A') (A') (A') (A')
                 (A') (A') (A') (A') (A') (A') (A') (A') (A') (A')
                 (A') (A') (A') (A') (A') (A') (A') (A') (A') (A')
                 (A") (A") (A") (A") (A") (A") (A") (A") (A") (A")
                 (A") (A") (A") (A") (A") (A") (A") (A") (A") (A")
                 (A") (A") (A") (A") (A")
 ExpMin= 4.38D-02 ExpMax= 5.48D+03 ExpMxC= 8.25D+02 IAcc=2 IRadAn=         4 AccDes= 0.00D+00
 Harris functional with IExCor= 1009 and IRadAn=       4 diagonalized for initial guess.
 HarFok:  IExCor= 1009 AccDes= 0.00D+00 IRadAn=         4 IDoV= 1 UseB2=F ITyADJ=14
 ICtDFT=  3500011 ScaDFX=  1.000000  1.000000  1.000000  1.000000
 FoFCou: FMM=F IPFlag=           0 FMFlag=      100000 FMFlg1=           0
         NFxFlg=           0 DoJE=T BraDBF=F KetDBF=T FulRan=T
         wScrn=  0.000000 ICntrl=     500 IOpCl=  0 I1Cent=   200000004 NGrid=           0
         NMat0=    1 NMatS0=      1 NMatT0=    0 NMatD0=    1 NMtDS0=    0 NMtDT0=    0
 Petite list used in FoFCou.
 Keep R1 ints in memory in symmetry-blocked form, NReq=23632887.
 Requested convergence on RMS density matrix=1.00D-08 within 128 cycles.
 Requested convergence on MAX density matrix=1.00D-06.
 Requested convergence on             energy=1.00D-06.
 No special actions if energy rises.
 Inv3:  Mode=1 IEnd=     1997568.
 Iteration    1 A*A^-1 deviation from unit magnitude is 3.77D-15 for    808.
 Iteration    1 A*A^-1 deviation from orthogonality  is 4.14D-15 for    666    247.
 Iteration    1 A^-1*A deviation from unit magnitude is 3.89D-15 for    808.
 Iteration    1 A^-1*A deviation from orthogonality  is 6.04D-14 for    514    456.
 Error on total polarization charges =  0.06048
 SCF Done:  E(RM062X) =  -267.843669358     A.U. after   10 cycles
            NFock= 10  Conv=0.92D-08     -V/T= 2.0088
 SMD-CDS (non-electrostatic) energy       (kcal/mol) =       4.01
 (included in total energy above)
 D1PCM: PCM CHGder 1st derivatives, ID1Alg=3 FixD1E=F DoIter=F DoCFld=F I1PDM=0.
 Calling FoFJK, ICntrl=      2127 FMM=F ISym2X=1 I1Cent= 0 IOpClX= 0 NMat=1 NMatS=1 NMatT=0.
 ***** Axes restored to original set *****
 -------------------------------------------------------------------
 Center     Atomic                   Forces (Hartrees/Bohr)
 Number     Number              X              Y              Z
 -------------------------------------------------------------------
      1        6           0.000234674    0.000061508   -0.000000650
      2        6           0.000784549    0.000509045   -0.000003556
      3        6          -0.003643823   -0.000248509    0.000006873
      4        8           0.001047376   -0.000026710   -0.000001528
      5        8           0.001939378    0.000306351   -0.000004451
      6        1          -0.000354938    0.000064229    0.000000267
      7        1          -0.000033662   -0.000111885    0.000301874
      8        1          -0.000034611   -0.000114631   -0.000300734
      9        1           0.000031005   -0.000218321    0.000303173
     10        1           0.000030053   -0.000221076   -0.000301267
 -------------------------------------------------------------------
 Cartesian Forces:  Max     0.003643823 RMS     0.000813353

 GradGradGradGradGradGradGradGradGradGradGradGradGradGradGradGradGradGrad
 Berny optimization.
 Using GEDIIS/GDIIS optimizer.
 FormGI is forming the generalized inverse of G from B-inverse, IUseBI=4.
 Internal  Forces:  Max     0.001884603 RMS     0.000438102
 Search for a local minimum.
 Step number   4 out of a maximum of   49
 All quantities printed in internal units (Hartrees-Bohrs-Radians)
 Mixed Optimization -- En-DIIS/RFO-DIIS
 Update second derivatives using D2CorX and points    1    2    3    4
 DE= -1.84D-04 DEPred=-1.74D-04 R= 1.06D+00
 TightC=F SS=  1.41D+00  RLast= 2.74D-02 DXNew= 8.4853D-01 8.2075D-02
 Trust test= 1.06D+00 RLast= 2.74D-02 DXMaxT set to 5.05D-01
 ITU=  1  1  1  0
 Use linear search instead of GDIIS.
     Eigenvalues ---    0.00405   0.00595   0.00595   0.03776   0.05261
     Eigenvalues ---    0.05494   0.05600   0.09950   0.13161   0.15875
     Eigenvalues ---    0.16000   0.16016   0.21629   0.22888   0.28130
     Eigenvalues ---    0.29974   0.31202   0.32453   0.32460   0.32510
     Eigenvalues ---    0.32544   0.34689   0.55275   0.82015
 RFO step:  Lambda=-2.18088804D-05 EMin= 4.05360551D-03
 Quartic linear search produced a step of  0.07264.
 Iteration  1 RMS(Cart)=  0.00158433 RMS(Int)=  0.00000321
 Iteration  2 RMS(Cart)=  0.00000338 RMS(Int)=  0.00000085
 Iteration  3 RMS(Cart)=  0.00000000 RMS(Int)=  0.00000085
 ClnCor:  largest displacement from symmetrization is 9.62D-09 for atom     8.
 Variable       Old X    -DE/DX   Delta X   Delta X   Delta X     New X
                                 (Linear)    (Quad)   (Total)
    R1        2.87468   0.00020  -0.00009   0.00074   0.00065   2.87534
    R2        2.06812   0.00031   0.00021   0.00071   0.00092   2.06904
    R3        2.06743   0.00031   0.00032   0.00070   0.00101   2.06845
    R4        2.06743   0.00031   0.00032   0.00070   0.00101   2.06845
    R5        2.89282  -0.00052   0.00005  -0.00166  -0.00162   2.89120
    R6        2.07257   0.00011   0.00024   0.00008   0.00032   2.07288
    R7        2.07257   0.00011   0.00024   0.00008   0.00032   2.07288
    R8        2.38798  -0.00015   0.00094  -0.00155  -0.00061   2.38738
    R9        2.39259   0.00188   0.00056   0.00275   0.00331   2.39590
    A1        1.92640   0.00028   0.00009   0.00202   0.00211   1.92851
    A2        1.94207  -0.00008  -0.00000  -0.00040  -0.00040   1.94167
    A3        1.94207  -0.00008  -0.00000  -0.00040  -0.00040   1.94167
    A4        1.88496  -0.00011   0.00001  -0.00080  -0.00079   1.88417
    A5        1.88496  -0.00011   0.00001  -0.00080  -0.00079   1.88417
    A6        1.88119   0.00009  -0.00011   0.00030   0.00019   1.88137
    A7        2.01533  -0.00005  -0.00061  -0.00093  -0.00154   2.01380
    A8        1.93122  -0.00001   0.00021   0.00027   0.00049   1.93170
    A9        1.93122  -0.00001   0.00021   0.00027   0.00049   1.93170
   A10        1.86735  -0.00006   0.00016  -0.00147  -0.00132   1.86604
   A11        1.86735  -0.00006   0.00016  -0.00147  -0.00132   1.86604
   A12        1.84186   0.00020  -0.00010   0.00367   0.00357   1.84543
   A13        2.07519   0.00120   0.00075   0.00432   0.00506   2.08025
   A14        2.03331   0.00005  -0.00106   0.00011  -0.00095   2.03236
   A15        2.17469  -0.00125   0.00031  -0.00442  -0.00411   2.17058
    D1        3.14159   0.00000   0.00000  -0.00000   0.00000   3.14159
    D2        1.01757   0.00012   0.00007   0.00243   0.00250   1.02006
    D3       -1.01757  -0.00012  -0.00007  -0.00243  -0.00250  -1.02006
    D4        1.04911   0.00000  -0.00007  -0.00008  -0.00015   1.04896
    D5       -1.07492   0.00012  -0.00000   0.00235   0.00235  -1.07257
    D6       -3.11005  -0.00012  -0.00014  -0.00250  -0.00265  -3.11270
    D7       -1.04911  -0.00000   0.00007   0.00008   0.00015  -1.04896
    D8        3.11005   0.00012   0.00014   0.00250   0.00265   3.11270
    D9        1.07492  -0.00012   0.00000  -0.00235  -0.00235   1.07257
   D10       -0.00000  -0.00000   0.00000   0.00000   0.00000   0.00000
   D11        3.14159  -0.00000   0.00000   0.00000   0.00000   3.14159
   D12        2.15798  -0.00009  -0.00002  -0.00142  -0.00143   2.15654
   D13       -0.98361  -0.00009  -0.00002  -0.00142  -0.00143  -0.98505
   D14       -2.15798   0.00009   0.00002   0.00142   0.00143  -2.15654
   D15        0.98361   0.00009   0.00002   0.00142   0.00143   0.98505
         Item               Value     Threshold  Converged?
 Maximum Force            0.001885     0.000450     NO 
 RMS     Force            0.000438     0.000300     NO 
 Maximum Displacement     0.004571     0.001800     NO 
 RMS     Displacement     0.001583     0.001200     NO 
 Predicted change in Energy=-1.173637D-05
 GradGradGradGradGradGradGradGradGradGradGradGradGradGradGradGradGradGrad

                          Input orientation:                          
 ---------------------------------------------------------------------
 Center     Atomic      Atomic             Coordinates (Angstroms)
 Number     Number       Type             X           Y           Z
 ---------------------------------------------------------------------
      1          6           0       -5.362145   -2.185188   -0.001049
      2          6           0       -3.990219   -1.527201   -0.006209
      3          6           0       -2.801132   -2.489923   -0.003695
      4          8           0       -3.016282   -3.734799    0.002317
      5          8           0       -1.647986   -1.962962   -0.007913
      6          1           0       -6.151319   -1.426253   -0.003264
      7          1           0       -5.498538   -2.811221    0.886406
      8          1           0       -5.501325   -2.819281   -0.882328
      9          1           0       -3.871836   -0.871476    0.865142
     10          1           0       -3.874592   -0.879446   -0.883868
 ---------------------------------------------------------------------
                    Distance matrix (angstroms):
                    1          2          3          4          5
     1  C    0.000000
     2  C    1.521563   0.000000
     3  C    2.579080   1.529957   0.000000
     4  O    2.811473   2.412906   1.263346   0.000000
     5  O    3.720808   2.382425   1.267853   2.238693   0.000000
     6  H    1.094889   2.163458   3.514988   3.893311   4.535205
     7  H    1.094576   2.172670   2.858585   2.792169   4.043032
     8  H    1.094576   2.172670   2.858585   2.792169   4.043032
     9  H    2.167290   1.096923   2.126183   3.110476   2.626610
    10  H    2.167290   1.096923   2.126183   3.110476   2.626610
                    6          7          8          9         10
     6  H    0.000000
     7  H    1.770811   0.000000
     8  H    1.770811   1.768755   0.000000
     9  H    2.501589   2.531644   3.082665   0.000000
    10  H    2.501589   3.082665   2.531644   1.749030   0.000000
 Stoichiometry    C3H5O2(1-)
 Framework group  CS[SG(C3HO2),X(H4)]
 Deg. of freedom    15
 Full point group                 CS      NOp   2
 Largest Abelian subgroup         CS      NOp   2
 Largest concise Abelian subgroup CS      NOp   2
                         Standard orientation:                         
 ---------------------------------------------------------------------
 Center     Atomic      Atomic             Coordinates (Angstroms)
[...]
 Vibration     4          0.858              1.244              0.652
 Vibration     5          0.933              1.082              0.492
                       Q            Log10(Q)             Ln(Q)
 Total Bot       0.304522D-22        -22.516381        -51.845884
 Total V=0       0.296045D+14         13.471358         31.018948
 Vib (Bot)       0.157477D-34        -34.802783        -80.136370
 Vib (Bot)    1  0.563049D+01          0.750547          1.728197
 Vib (Bot)    2  0.770952D+00         -0.112973         -0.260129
 Vib (Bot)    3  0.687466D+00         -0.162749         -0.374743
 Vib (Bot)    4  0.326277D+00         -0.486414         -1.120010
 Vib (Bot)    5  0.265323D+00         -0.576225         -1.326806
 Vib (V=0)       0.153093D+02          1.184956          2.728462
 Vib (V=0)    1  0.615265D+01          0.789062          1.816883
 Vib (V=0)    2  0.141889D+01          0.151950          0.349878
 Vib (V=0)    3  0.135006D+01          0.130355          0.300152
 Vib (V=0)    4  0.109704D+01          0.040222          0.092615
 Vib (V=0)    5  0.106604D+01          0.027772          0.063947
 Electronic      0.100000D+01          0.000000          0.000000
 Translational   0.245300D+08          7.389698         17.015408
 Rotational      0.788323D+05          4.896704         11.275078
 ***** Axes restored to original set *****
 -------------------------------------------------------------------
 Center     Atomic                   Forces (Hartrees/Bohr)
 Number     Number              X              Y              Z
 -------------------------------------------------------------------
      1        6          -0.000088267   -0.000059410    0.000000410
      2        6           0.000102078   -0.000004383   -0.000000141
      3        6          -0.000073921    0.000033046   -0.000000034
      4        8           0.000009945    0.000012542   -0.000000073
      5        8           0.000076993    0.000032869   -0.000000271
      6        1           0.000007180   -0.000016690    0.000000065
      7        1           0.000009048    0.000006544   -0.000015918
      8        1           0.000009098    0.000006689    0.000015829
      9        1          -0.000026097   -0.000005657   -0.000011816
     10        1          -0.000026059   -0.000005549    0.000011949
 -------------------------------------------------------------------
 Cartesian Forces:  Max     0.000102078 RMS     0.000035764
 FormGI is forming the generalized inverse of G from B-inverse, IUseBI=4.

 GradGradGradGradGradGradGradGradGradGradGradGradGradGradGradGradGradGrad
 Berny optimization.
 Internal  Forces:  Max     0.000076190 RMS     0.000021044
 Search for a local minimum.
 Step number   1 out of a maximum of    2
 All quantities printed in internal units (Hartrees-Bohrs-Radians)
 Second derivative matrix not updated -- analytic derivatives used.
 ITU=  0
     Eigenvalues ---   -0.00057   0.00272   0.03364   0.04159   0.04540
     Eigenvalues ---    0.04604   0.07436   0.08020   0.11153   0.12380
     Eigenvalues ---    0.14239   0.16079   0.21042   0.22971   0.23135
     Eigenvalues ---    0.31678   0.33865   0.34344   0.34537   0.34584
     Eigenvalues ---    0.35444   0.36539   0.48316   0.74208
 Eigenvalue     1 is  -5.74D-04 should be greater than     0.000000 Eigenvector:
                          D14       D12       D10       D15       D13
   1                   -0.42997  -0.42997  -0.41025  -0.39567  -0.39567
                          D11       D3        D2        D6        D5
   1                   -0.37595   0.03641   0.03641   0.03151   0.03151
 Angle between quadratic step and forces=  42.62 degrees.
 Linear search not attempted -- first point.
 Iteration  1 RMS(Cart)=  0.00013512 RMS(Int)=  0.00000002
 Iteration  2 RMS(Cart)=  0.00000002 RMS(Int)=  0.00000001
 ClnCor:  largest displacement from symmetrization is 7.69D-09 for atom     8.
 Variable       Old X    -DE/DX   Delta X   Delta X   Delta X     New X
                                 (Linear)    (Quad)   (Total)
    R1        2.87530   0.00007   0.00000   0.00028   0.00028   2.87557
    R2        2.06900  -0.00001   0.00000  -0.00003  -0.00003   2.06897
    R3        2.06838  -0.00002   0.00000  -0.00007  -0.00007   2.06830
    R4        2.06838  -0.00002   0.00000  -0.00007  -0.00007   2.06830
    R5        2.89001  -0.00003   0.00000  -0.00018  -0.00018   2.88983
    R6        2.07266  -0.00002   0.00000  -0.00004  -0.00004   2.07262
    R7        2.07266  -0.00002   0.00000  -0.00004  -0.00004   2.07262
    R8        2.38712  -0.00000   0.00000  -0.00001  -0.00001   2.38711
    R9        2.39684   0.00008   0.00000   0.00013   0.00013   2.39697
    A1        1.92858  -0.00001   0.00000  -0.00019  -0.00019   1.92839
    A2        1.94146   0.00000   0.00000  -0.00000  -0.00000   1.94146
    A3        1.94146   0.00000   0.00000  -0.00000  -0.00000   1.94146
    A4        1.88410   0.00000   0.00000   0.00004   0.00004   1.88414
    A5        1.88410   0.00000   0.00000   0.00004   0.00004   1.88414
    A6        1.88191   0.00000   0.00000   0.00012   0.00012   1.88202
    A7        2.01329   0.00003   0.00000   0.00014   0.00014   2.01343
    A8        1.93139  -0.00002   0.00000  -0.00020  -0.00020   1.93118
    A9        1.93139  -0.00002   0.00000  -0.00020  -0.00020   1.93118
   A10        1.86600   0.00000   0.00000   0.00014   0.00014   1.86614
   A11        1.86600   0.00000   0.00000   0.00014   0.00014   1.86614
   A12        1.84684   0.00001   0.00000  -0.00001  -0.00001   1.84682
   A13        2.08094  -0.00002   0.00000  -0.00007  -0.00007   2.08087
   A14        2.03239   0.00004   0.00000   0.00014   0.00014   2.03254
   A15        2.16985  -0.00001   0.00000  -0.00007  -0.00007   2.16978
    D1        3.14159   0.00000   0.00000  -0.00000  -0.00000   3.14159
    D2        1.02073  -0.00001   0.00000  -0.00013  -0.00013   1.02060
    D3       -1.02073   0.00001   0.00000   0.00013   0.00013  -1.02060
    D4        1.04915   0.00000   0.00000   0.00007   0.00007   1.04922
    D5       -1.07171  -0.00000   0.00000  -0.00006  -0.00006  -1.07177
    D6       -3.11318   0.00001   0.00000   0.00020   0.00020  -3.11297
    D7       -1.04915  -0.00000   0.00000  -0.00007  -0.00007  -1.04922
    D8        3.11318  -0.00001   0.00000  -0.00020  -0.00020   3.11297
    D9        1.07171   0.00000   0.00000   0.00006   0.00006   1.07177
   D10        0.00000   0.00000   0.00000   0.00000   0.00000   0.00000
   D11       -3.14159  -0.00000   0.00000   0.00000  -0.00000   3.14159
   D12        2.15576  -0.00000   0.00000  -0.00006  -0.00006   2.15570
   D13       -0.98583  -0.00000   0.00000  -0.00006  -0.00006  -0.98589
   D14       -2.15576   0.00000   0.00000   0.00006   0.00006  -2.15570
   D15        0.98583   0.00000   0.00000   0.00006   0.00006   0.98589
         Item               Value     Threshold  Converged?
 Maximum Force            0.000076     0.000450     YES
 RMS     Force            0.000021     0.000300     YES
 Maximum Displacement     0.000362     0.001800     YES
 RMS     Displacement     0.000135     0.001200     YES
 Predicted change in Energy=-3.477403D-08
 Optimization completed.
    -- Stationary point found.
                           ----------------------------
                           !   Optimized Parameters   !
                           ! (Angstroms and Degrees)  !
 --------------------------                            --------------------------
 ! Name  Definition              Value          Derivative Info.                !
 --------------------------------------------------------------------------------
 ! R1    R(1,2)                  1.5215         -DE/DX =    0.0001              !
 ! R2    R(1,6)                  1.0949         -DE/DX =    0.0                 !
 ! R3    R(1,7)                  1.0945         -DE/DX =    0.0                 !
 ! R4    R(1,8)                  1.0945         -DE/DX =    0.0                 !
 ! R5    R(2,3)                  1.5293         -DE/DX =    0.0                 !
 ! R6    R(2,9)                  1.0968         -DE/DX =    0.0                 !
 ! R7    R(2,10)                 1.0968         -DE/DX =    0.0                 !
 ! R8    R(3,4)                  1.2632         -DE/DX =    0.0                 !
 ! R9    R(3,5)                  1.2684         -DE/DX =    0.0001              !
 ! A1    A(2,1,6)              110.4995         -DE/DX =    0.0                 !
 ! A2    A(2,1,7)              111.2375         -DE/DX =    0.0                 !
 ! A3    A(2,1,8)              111.2375         -DE/DX =    0.0                 !
 ! A4    A(6,1,7)              107.9507         -DE/DX =    0.0                 !
 ! A5    A(6,1,8)              107.9507         -DE/DX =    0.0                 !
 ! A6    A(7,1,8)              107.8252         -DE/DX =    0.0                 !
 ! A7    A(1,2,3)              115.3528         -DE/DX =    0.0                 !
 ! A8    A(1,2,9)              110.6603         -DE/DX =    0.0                 !
 ! A9    A(1,2,10)             110.6603         -DE/DX =    0.0                 !
 ! A10   A(3,2,9)              106.914          -DE/DX =    0.0                 !
 ! A11   A(3,2,10)             106.914          -DE/DX =    0.0                 !
 ! A12   A(9,2,10)             105.8159         -DE/DX =    0.0                 !
 ! A13   A(2,3,4)              119.2293         -DE/DX =    0.0                 !
 ! A14   A(2,3,5)              116.4476         -DE/DX =    0.0                 !
 ! A15   A(4,3,5)              124.3232         -DE/DX =    0.0                 !
 ! D1    D(6,1,2,3)            180.0            -DE/DX =    0.0                 !
 ! D2    D(6,1,2,9)             58.4838         -DE/DX =    0.0                 !
 ! D3    D(6,1,2,10)           -58.4838         -DE/DX =    0.0                 !
 ! D4    D(7,1,2,3)             60.1119         -DE/DX =    0.0                 !
 ! D5    D(7,1,2,9)            -61.4043         -DE/DX =    0.0                 !
 ! D6    D(7,1,2,10)          -178.3719         -DE/DX =    0.0                 !
 ! D7    D(8,1,2,3)            -60.1119         -DE/DX =    0.0                 !
 ! D8    D(8,1,2,9)            178.3719         -DE/DX =    0.0                 !
 ! D9    D(8,1,2,10)            61.4043         -DE/DX =    0.0                 !
 ! D10   D(1,2,3,4)              0.0            -DE/DX =    0.0                 !
 ! D11   D(1,2,3,5)            180.0            -DE/DX =    0.0                 !
 ! D12   D(9,2,3,4)            123.5159         -DE/DX =    0.0                 !
 ! D13   D(9,2,3,5)            -56.4841         -DE/DX =    0.0                 !
 ! D14   D(10,2,3,4)          -123.5159         -DE/DX =    0.0                 !
 ! D15   D(10,2,3,5)            56.4841         -DE/DX =    0.0                 !
 --------------------------------------------------------------------------------
 GradGradGradGradGradGradGradGradGradGradGradGradGradGradGradGradGradGrad


 Test job not archived.
 1\1\GINC-R3734\Freq\RM062X\Gen\C3H5O2(1-)\ROOT\20-Feb-2019\0\\#N Geom=
 AllCheck Guess=TCheck SCRF=Check Test GenChk RM062X/ChkBas Freq\\Prop.
 M062X_6-31pGd_opt_water\\-1,1\C,-5.361931422,-2.1851750805,-0.00104932
 59\C,-3.9901278265,-1.5269845556,-0.0062098952\C,-2.8018701603,-2.4897
 299901,-0.0036948422\O,-3.0165693554,-3.7345453186,0.0023159164\O,-1.6
 480639674,-1.9630117113,-0.0079128531\H,-6.1512583288,-1.4264304065,-0
 .0032632774\H,-5.4980804609,-2.810996842,0.8865442624\H,-5.5008675187,
 -2.8190580647,-0.8824691686\H,-3.8719243684,-0.8719220321,0.8655163482
 \H,-3.8746810839,-0.8798954932,-0.88423803\\Version=ES64L-G09RevE.01\S
 tate=1-A'\HF=-267.8436842\RMSD=2.298e-10\RMSF=3.576e-05\ZeroPoint=0.07
 82398\Thermal=0.0836642\Dipole=-2.8998729,1.5078718,-0.0023025\DipoleD
 eriv=-0.0028287,-0.0405884,0.0003937,-0.0121263,0.1038623,0.0001368,0.
 000264,0.0001816,0.1296787,-0.0764563,0.2182772,-0.0005814,0.2964436,-
 0.1334975,0.0009883,-0.0009376,0.0011115,0.1858768,2.4815085,0.7273964
 ,-0.0067032,0.7021609,2.8486468,-0.0125801,-0.0065882,-0.0126199,0.330
 7993,-1.1223037,-0.0822679,0.0010485,-0.5414891,-2.3897153,0.0085769,0
 .0031411,0.0078534,-0.6947831,-2.2241768,-0.8222952,0.0060741,-0.38076
 68,-1.3644096,0.0034126,0.0040621,0.0041083,-0.7471834,-0.1320693,0.11
 89856,-0.0001801,0.1488167,-0.0525732,0.0004506,-0.000316,0.0004976,0.
 0977643,0.0425101,-0.0332508,0.005661,-0.0658805,-0.0062263,0.1230164,
 0.0421451,0.1331116,-0.1000681,0.0423595,-0.0337236,-0.0058009,-0.0666
 525,-0.0085668,-0.1236409,-0.0419863,-0.1338393,-0.097577,-0.0043946,-
 0.026723,-0.0483329,-0.0405548,0.0000746,-0.1061087,-0.0295077,-0.1499
 701,-0.0509656,-0.0041488,-0.0258102,0.0484211,-0.039951,0.002405,0.10
 5748,0.0297234,0.1495654,-0.0535418\Polar=65.9889617,5.5760924,69.8907
 837,-0.0513075,-0.1014714,49.551563\PG=CS [SG(C3H1O2),X(H4)]\NImag=0\\
 0.51603452,-0.03416376,0.57265572,0.00026451,0.00011058,0.58510924,-0.
 19077006,-0.05769745,0.00043755,0.50277254,-0.05637414,-0.11210174,0.0
 0023542,0.03669627,0.53924047,0.00043152,0.00023751,-0.07993092,-0.000
 06685,0.00006633,0.56648314,-0.02370915,0.01082067,-0.00001532,-0.1396
 2376,0.04929809,-0.00015604,0.66200674,-0.00686427,0.01490287,-0.00006
 684,0.05062171,-0.11579144,0.00001008,0.07565876,0.72439112,0.00006527
 ,-0.00009470,-0.00213691,-0.00016207,0.00001217,-0.09607687,-0.0010009
 2,-0.00230133,0.24554134,-0.00093445,0.00489396,-0.00002160,0.00646874
 ,0.02386552,-0.00007918,-0.10060359,-0.05070721,0.00027281,0.12428193,
 -0.00239455,-0.00195850,0.00001047,0.00059264,-0.04339130,0.00031182,-
 0.00140021,-0.46205904,0.00177005,0.09510917,0.58802827,0.00001162,-0.
 00000101,-0.00048808,0.00002688,0.00027515,0.02523954,0.00004812,0.001
 84773,-0.07411884,-0.00059147,-0.00272028,0.02396628,-0.00494370,0.010
 80885,-0.00003793,-0.05034158,-0.01143154,0.00016273,-0.40746819,-0.08
 326556,0.00090163,-0.02473124,-0.10164427,0.00054289,0.49485340,0.0013
 9344,-0.00169392,0.00001576,0.01698932,0.01238446,0.00000742,-0.127452
 45,-0.12850968,0.00044000,-0.08291720,-0.07551232,0.00059257,0.1901670
 9,0.18914368,0.00000498,0.00000093,0.00224654,0.00003322,0.00005219,0.
 01988536,0.00110298,0.00037038,-0.07602121,0.00045755,0.00062208,0.025
 85530,-0.00160471,-0.00104150,0.02634524,-0.18623838,0.13559802,-0.000
 40177,-0.02097317,0.02287176,-0.00007295,0.00044905,-0.00627162,0.0000
 2916,-0.00034910,0.00108034,-0.00000400,-0.00466655,0.00080935,0.00000
 379,0.20291945,0.13737720,-0.18146902,0.00038699,-0.01355915,0.0118908
 7,-0.00003793,-0.00195273,-0.00293377,0.00002017,0.00122555,0.00072047
 ,-0.00000415,-0.00139602,0.00066013,-0.00000045,-0.14753970,0.19478534
 ,-0.00040987,0.00038979,-0.04904966,0.00009307,-0.00009532,-0.00111974
 ,0.00000948,0.00002698,0.00081819,-0.00000467,-0.00000392,0.00023451,0
 .00001384,-0.00000393,0.00007864,0.00042600,-0.00044295,0.04657250,-0.
 05060556,-0.01663474,0.02408478,-0.00366913,-0.01757472,0.02601765,0.0
 0130424,-0.00055700,0.00059281,-0.00011654,0.00037542,0.00003186,-0.00
 019311,0.00021086,-0.00034968,0.00317133,0.01201432,-0.02009154,0.0547
 5478,-0.01774653,-0.13613053,0.12634005,-0.00172186,-0.00852588,0.0117
 2522,0.00102806,-0.00137807,-0.00033136,0.00063534,0.00107605,-0.00046
 709,-0.00037116,0.00037525,-0.00005964,-0.00335096,-0.01231784,0.01817
 450,0.02142505,0.14505241,0.02595487,0.12610879,-0.23076737,0.00002994
 ,-0.00151533,0.00134822,-0.00010008,0.00148341,0.00011267,-0.00081879,
 -0.00058328,0.00029940,0.00027279,-0.00040708,-0.00006425,-0.00096107,
 -0.00128012,0.00112539,-0.02718791,-0.13917771,0.24602872,-0.05076451,
 -0.01725473,-0.02449390,-0.00375087,-0.01780602,-0.02584021,0.00130267
 ,-0.00056704,-0.00059142,-0.00011407,0.00037694,-0.00003400,-0.0001928
 7,0.00021531,0.00034813,0.00323752,0.01220107,0.01997478,-0.00056803,0
 .00255439,0.00252482,0.05492739,-0.01838425,-0.13843851,-0.12712389,-0
 .00175878,-0.00861783,-0.01162853,0.00102997,-0.00138845,0.00034181,0.
 00064424,0.00108554,0.00045790,-0.00037345,0.00037947,0.00005677,-0.00
 339914,-0.01247081,-0.01804025,0.00258004,0.01204401,0.01541542,0.0221
 1453,0.14759689,-0.02635378,-0.12689616,-0.22830043,0.00000214,0.00166
 227,0.00152192,0.00008697,-0.00146795,0.00012462,0.00081424,0.00057492
 ,0.00028744,-0.00026900,0.00040237,-0.00006871,0.00098541,0.00136558,0
 .00121217,-0.00261025,-0.01571787,-0.02025318,0.02758766,0.14000543,0.
 24331164,-0.00407432,-0.01829856,-0.02534866,-0.05011737,-0.01505925,-
 0.01884547,0.00320405,0.01108485,0.02321172,-0.00195467,0.00393910,-0.
 00294975,-0.00116044,0.00028222,-0.00232681,0.00122421,0.00081474,-0.0
 0001856,0.00147003,0.00054483,0.00051105,-0.00554665,-0.00299368,0.000
 27507,0.05716875,-0.00143779,-0.00792296,-0.01044923,-0.01537825,-0.13
 872120,-0.13071453,-0.00355800,-0.01370304,-0.02057989,0.00363224,-0.0
 0398058,0.00294789,-0.00123856,0.00140182,0.00292987,0.00009952,0.0005
 6913,0.00034567,0.00061652,0.00021007,-0.00000974,-0.00245393,-0.00040
 156,0.00005927,0.01810714,0.15026612,0.00008661,0.00183708,0.00173855,
 -0.02027508,-0.12834822,-0.21743691,-0.00226846,0.00177037,0.00093171,
 0.00048834,0.00014432,-0.00064795,0.00084042,0.00043717,0.00085855,-0.
 00044127,0.00004472,0.00006291,-0.00032540,-0.00011720,0.00068770,0.00
 020683,0.00039551,0.00147741,0.02363021,0.13980905,0.23363627,-0.00399
 438,-0.01807226,0.02553234,-0.04999534,-0.01448596,0.01844879,0.003137
 93,0.01086739,-0.02331898,-0.00194701,0.00396542,0.00291787,-0.0011557
 2,0.00030206,0.00233054,0.00122564,0.00081471,0.00000747,-0.00554802,-
 0.00299717,-0.00022563,0.00146942,0.00054051,-0.00051846,-0.00021360,0
 .00161112,-0.00194220,0.05702109,-0.00140537,-0.00784340,0.01054067,-0
 .01478446,-0.13636641,0.13002262,-0.00347214,-0.01353051,0.02072307,0.
 00361839,-0.00400859,-0.00292872,-0.00125538,0.00137111,-0.00293063,0.
 00010243,0.00056551,-0.00035057,-0.00245576,-0.00040547,-0.00003436,0.
 00061948,0.00021125,0.00001214,0.00157862,0.01228220,-0.01597281,0.017
 45418,0.14772431,-0.00005571,-0.00169281,0.00157905,0.01988121,0.12765
 534,-0.21991373,0.00229327,-0.00167284,0.00082530,-0.00051724,-0.00012
 618,-0.00062760,-0.00082266,-0.00044278,0.00088455,0.00043669,-0.00005
 187,0.00006509,-0.00016231,-0.00036891,0.00148269,0.00031730,0.0001198
 3,0.00068713,0.00186119,0.01566164,-0.02130823,-0.02323174,-0.13908140
 ,0.23632575\\0.00008827,0.00005941,-0.00000041,-0.00010208,0.00000438,
 0.00000014,0.00007392,-0.00003305,0.00000003,-0.00000994,-0.00001254,0
 .00000007,-0.00007699,-0.00003287,0.00000027,-0.00000718,0.00001669,-0
 .00000006,-0.00000905,-0.00000654,0.00001592,-0.00000910,-0.00000669,-
 0.00001583,0.00002610,0.00000566,0.00001182,0.00002606,0.00000555,-0.0
 0001195\\\@


 MAN IS THE MEASURE OF ALL THINGS.
  -- PROTAGORAS (5TH CENTURY B.C.)
 Job cpu time:       0 days  0 hours  4 minutes 17.1 seconds.
 File lengths (MBytes):  RWF=     27 Int=      0 D2E=      0 Chk=      5 Scr=      1
 Normal termination of Gaussian 09 at Wed Feb 20 09:19:17 2019.
WARNING: pbs_rusage is deprecated and values produced may not be accurate


=============================================================================
                                     Resource usage:
                                       CPU time:              00:00:00
   JobId:    5914351.r-man2            Elapsed time:          00:00:51
   Project:             q95            Requested time:        10:00:00
   Service Units:      0.06 
                                       Max physical memory:        0MB
                                       Max virtual memory:         0MB
                                       Requested memory:           0MB

                                       Number of cpus:               4

                                       Max jobfs disk use:       0.0GB
                                       Requested jobfs:          5.0GB
=============================================================================

