 Entering Gaussian System, Link 0=/apps/gaussian/g09e01/g09/g09
 AtFile(1): /home/507/hio507/Basis/6-31pGd.gbs
 Initial command:
 /apps/gaussian/g09e01/g09/l1.exe "/jobfs/local/5914352.r-man2/Gau-50215.inp" -scrdir="/jobfs/local/5914352.r-man2/"
 Entering Link 1 = /apps/gaussian/g09e01/g09/l1.exe PID=     50216.
  
 Copyright (c) 1988,1990,1992,1993,1995,1998,2003,2009,2015,
            Gaussian, Inc.  All Rights Reserved.
  
 This is part of the Gaussian(R) 09 program.  It is based on
 the Gaussian(R) 03 system (copyright 2003, Gaussian, Inc.),
 the Gaussian(R) 98 system (copyright 1998, Gaussian, Inc.),
 the Gaussian(R) 94 system (copyright 1995, Gaussian, Inc.),
 the Gaussian 92(TM) system (copyright 1992, Gaussian, Inc.),
 the Gaussian 90(TM) system (copyright 1990, Gaussian, Inc.),
 the Gaussian 88(TM) system (copyright 1988, Gaussian, Inc.),
 the Gaussian 86(TM) system (copyright 1986, Carnegie Mellon
 University), and the Gaussian 82(TM) system (copyright 1983,
 Carnegie Mellon University). Gaussian is a federally registered
 trademark of Gaussian, Inc.
  
 This software contains proprietary and confidential information,
 including trade secrets, belonging to Gaussian, Inc.
  
 This software is provided under written license and may be
 used, copied, transmitted, or stored only in accord with that
 written license.
  
 The following legend is applicable only to US Government
 contracts under FAR:
  
                    RESTRICTED RIGHTS LEGEND
  
 Use, reproduction and disclosure by the US Government is
 subject to restrictions as set forth in subparagraphs (a)
 and (c) of the Commercial Computer Software - Restricted
 Rights clause in FAR 52.227-19.
  
 Gaussian, Inc.
 340 Quinnipiac St., Bldg. 40, Wallingford CT 06492
  
  
 ---------------------------------------------------------------
 Warning -- This program may not be used in any manner that
 competes with the business of Gaussian, Inc. or will provide
 assistance to any competitor of Gaussian, Inc.  The licensee
 of this program is prohibited from giving any competitor of
 Gaussian, Inc. access to this program.  By using this program,
 the user acknowledges that Gaussian, Inc. is engaged in the
 business of creating and licensing software in the field of
 computational chemistry and represents and warrants to the
 licensee that it is not a competitor of Gaussian, Inc. and that
 it will not use this program in any manner prohibited above.
 ---------------------------------------------------------------
  

 Cite this work as:
 Gaussian 09, Revision E.01,
 M. J. Frisch, G. W. Trucks, H. B. Schlegel, G. E. Scuseria, 
 M. A. Robb, J. R. Cheeseman, G. Scalmani, V. Barone, B. Mennucci, 
 G. A. Petersson, H. Nakatsuji, M. Caricato, X. Li, H. P. Hratchian, 
 A. F. Izmaylov, J. Bloino, G. Zheng, J. L. Sonnenberg, M. Hada, 
 M. Ehara, K. Toyota, R. Fukuda, J. Hasegawa, M. Ishida, T. Nakajima, 
 Y. Honda, O. Kitao, H. Nakai, T. Vreven, J. A. Montgomery, Jr., 
 J. E. Peralta, F. Ogliaro, M. Bearpark, J. J. Heyd, E. Brothers, 
 K. N. Kudin, V. N. Staroverov, T. Keith, R. Kobayashi, J. Normand, 
 K. Raghavachari, A. Rendell, J. C. Burant, S. S. Iyengar, J. Tomasi, 
 M. Cossi, N. Rega, J. M. Millam, M. Klene, J. E. Knox, J. B. Cross, 
 V. Bakken, C. Adamo, J. Jaramillo, R. Gomperts, R. E. Stratmann, 
 O. Yazyev, A. J. Austin, R. Cammi, C. Pomelli, J. W. Ochterski, 
 R. L. Martin, K. Morokuma, V. G. Zakrzewski, G. A. Voth, 
 P. Salvador, J. J. Dannenberg, S. Dapprich, A. D. Daniels, 
 O. Farkas, J. B. Foresman, J. V. Ortiz, J. Cioslowski, 
 and D. J. Fox, Gaussian, Inc., Wallingford CT, 2013.
 
 ******************************************
 Gaussian 09:  ES64L-G09RevE.01 30-Nov-2015
                20-Feb-2019 
 ******************************************
 %chk=Prop.M062X_6-31pGd_opt_Pentadecane.chk
 %mem=196608000
 %nproc=4
 Will use up to    4 processors via shared memory.
 ----------------------------------------------------------------------
 # M062X/Gen 6D SCF=Tight INT(grid=ultrafine) OPT IOP(2/17=4) SCRF=(SMD
 ,Solvent=n-Pentadecane) maxdisk=671088640
 ----------------------------------------------------------------------
 1/14=-1,18=20,19=15,26=4,38=1/1,3;
 2/9=110,12=2,17=4,18=5,40=1/2;
 3/5=7,8=2,11=2,16=1,25=1,30=1,70=32201,71=1,72=151,74=-55,75=-5/1,2,3;
 4//1;
 5/5=2,32=2,38=5,53=151/2;
 6/7=2,8=2,9=2,10=2,28=1/1;
 7//1,2,3,16;
 1/14=-1,18=20,19=15,26=4/3(2);
 2/9=110,17=4/2;
 99//99;
 2/9=110,17=4/2;
 3/5=7,6=1,8=2,11=2,16=1,25=1,30=1,70=32205,71=1,72=151,74=-55,75=-5,82=7/1,2,3;
 4/5=5,16=3,69=1/1;
 5/5=2,32=2,38=5,53=151/2;
 7//1,2,3,16;
 1/14=-1,18=20,19=15,26=4/3(-5);
 2/9=110,17=4/2;
 6/7=2,8=2,9=2,10=2,19=2,28=1/1;
 99/9=1/99;
 ----------------------------------
 Prop.M062X_6-31pGd_opt_Pentadecane
 ----------------------------------
 Symbolic Z-matrix:
 Charge = -1 Multiplicity = 1
 C                    -5.35418  -2.18054  -0.00108 
 C                    -3.9831   -1.50776  -0.00631 
 C                    -2.81199  -2.46554  -0.00379 
 O                    -2.95761  -3.81098   0.00257 
 O                    -1.68328  -2.00141  -0.00768 
 H                    -6.14717  -1.40316  -0.00338 
 H                    -5.47772  -2.80286   0.91076 
 H                    -5.48059  -2.81116  -0.90681 
 H                    -3.90845  -0.85807   0.89223 
 H                    -3.91129  -0.86629  -0.91098 
 

 GradGradGradGradGradGradGradGradGradGradGradGradGradGradGradGradGradGrad
 Berny optimization.
 Initialization pass.
                           ----------------------------
                           !    Initial Parameters    !
                           ! (Angstroms and Degrees)  !
 --------------------------                            --------------------------
 ! Name  Definition              Value          Derivative Info.                !
 --------------------------------------------------------------------------------
 ! R1    R(1,2)                  1.5273         estimate D2E/DX2                !
 ! R2    R(1,6)                  1.1105         estimate D2E/DX2                !
 ! R3    R(1,7)                  1.1109         estimate D2E/DX2                !
 ! R4    R(1,8)                  1.1109         estimate D2E/DX2                !
 ! R5    R(2,3)                  1.5129         estimate D2E/DX2                !
 ! R6    R(2,9)                  1.1113         estimate D2E/DX2                !
 ! R7    R(2,10)                 1.1113         estimate D2E/DX2                !
 ! R8    R(3,4)                  1.3533         estimate D2E/DX2                !
 ! R9    R(3,5)                  1.2204         estimate D2E/DX2                !
 ! A1    A(2,1,6)              109.432          estimate D2E/DX2                !
 ! A2    A(2,1,7)              110.4527         estimate D2E/DX2                !
 ! A3    A(2,1,8)              110.4531         estimate D2E/DX2                !
 ! A4    A(6,1,7)              108.3282         estimate D2E/DX2                !
 ! A5    A(6,1,8)              108.3279         estimate D2E/DX2                !
 ! A6    A(7,1,8)              109.7908         estimate D2E/DX2                !
 ! A7    A(1,2,3)              114.5849         estimate D2E/DX2                !
 ! A8    A(1,2,9)              108.3646         estimate D2E/DX2                !
 ! A9    A(1,2,10)             108.3646         estimate D2E/DX2                !
 ! A10   A(3,2,9)              108.467          estimate D2E/DX2                !
 ! A11   A(3,2,10)             108.4667         estimate D2E/DX2                !
 ! A12   A(9,2,10)             108.445          estimate D2E/DX2                !
 ! A13   A(2,3,4)              123.1005         estimate D2E/DX2                !
 ! A14   A(2,3,5)              118.3691         estimate D2E/DX2                !
 ! A15   A(4,3,5)              118.5303         estimate D2E/DX2                !
 ! D1    D(6,1,2,3)           -179.9997         estimate D2E/DX2                !
 ! D2    D(6,1,2,9)             58.7411         estimate D2E/DX2                !
 ! D3    D(6,1,2,10)           -58.7407         estimate D2E/DX2                !
 ! D4    D(7,1,2,3)             60.8267         estimate D2E/DX2                !
 ! D5    D(7,1,2,9)            -60.4326         estimate D2E/DX2                !
 ! D6    D(7,1,2,10)          -177.9144         estimate D2E/DX2                !
 ! D7    D(8,1,2,3)            -60.8261         estimate D2E/DX2                !
 ! D8    D(8,1,2,9)            177.9146         estimate D2E/DX2                !
 ! D9    D(8,1,2,10)            60.4328         estimate D2E/DX2                !
 ! D10   D(1,2,3,4)              0.0002         estimate D2E/DX2                !
 ! D11   D(1,2,3,5)           -179.9997         estimate D2E/DX2                !
 ! D12   D(9,2,3,4)            121.2032         estimate D2E/DX2                !
 ! D13   D(9,2,3,5)            -58.7966         estimate D2E/DX2                !
 ! D14   D(10,2,3,4)          -121.2027         estimate D2E/DX2                !
 ! D15   D(10,2,3,5)            58.7975         estimate D2E/DX2                !
 --------------------------------------------------------------------------------
 Trust Radius=3.00D-01 FncErr=1.00D-07 GrdErr=1.00D-06
 Number of steps in this run=     49 maximum allowed number of steps=    100.
 GradGradGradGradGradGradGradGradGradGradGradGradGradGradGradGradGradGrad

                          Input orientation:                          
 ---------------------------------------------------------------------
 Center     Atomic      Atomic             Coordinates (Angstroms)
 Number     Number       Type             X           Y           Z
 ---------------------------------------------------------------------
      1          6           0       -5.354180   -2.180540   -0.001080
      2          6           0       -3.983100   -1.507760   -0.006310
      3          6           0       -2.811990   -2.465540   -0.003790
      4          8           0       -2.957610   -3.810980    0.002570
      5          8           0       -1.683280   -2.001410   -0.007680
      6          1           0       -6.147170   -1.403160   -0.003380
      7          1           0       -5.477720   -2.802860    0.910760
      8          1           0       -5.480590   -2.811160   -0.906810
      9          1           0       -3.908450   -0.858070    0.892230
     10          1           0       -3.911290   -0.866290   -0.910980
 ---------------------------------------------------------------------
                    Distance matrix (angstroms):
                    1          2          3          4          5
     1  C    0.000000
     2  C    1.527259   0.000000
     3  C    2.558117   1.512894   0.000000
     4  O    2.898602   2.521216   1.353312   0.000000
     5  O    3.675274   2.352204   1.220417   2.213270   0.000000
     6  H    1.110477   2.166598   3.500297   3.996364   4.503802
     7  H    1.110854   2.179952   2.838363   2.862179   3.985427
     8  H    1.110859   2.179961   2.838366   2.862174   3.985435
     9  H    2.153385   1.111325   2.142204   3.227270   2.658655
    10  H    2.153393   1.111336   2.142208   3.227271   2.658661
                    6          7          8          9         10
     6  H    0.000000
     7  H    1.800826   0.000000
     8  H    1.800827   1.817591   0.000000
     9  H    2.472065   2.499032   3.085892   0.000000
    10  H    2.472069   3.085894   2.499048   1.803231   0.000000
 Stoichiometry    C3H5O2(1-)
 Framework group  CS[SG(C3HO2),X(H4)]
 Deg. of freedom    15
 Full point group                 CS      NOp   2
 Largest Abelian subgroup         CS      NOp   2
 Largest concise Abelian subgroup CS      NOp   2
                         Standard orientation:                         
 ---------------------------------------------------------------------
 Center     Atomic      Atomic             Coordinates (Angstroms)
 Number     Number       Type             X           Y           Z
 ---------------------------------------------------------------------
      1          6           0        0.115047   -1.899281    0.000000
      2          6           0       -0.763382   -0.649928    0.000000
      3          6           0       -0.000000    0.656248   -0.000000
      4          8           0        1.351700    0.722280   -0.000000
      5          8           0       -0.634523    1.698744    0.000000
      6          1           0       -0.529125   -2.803825    0.000000
      7          1           0        0.753341   -1.925004    0.908802
      8          1           0        0.753341   -1.925004   -0.908802
      9          1           0       -1.412491   -0.678297    0.901606
     10          1           0       -1.412491   -0.678297   -0.901606
 ---------------------------------------------------------------------
 Rotational constants (GHZ):      9.8194255      3.9843908      2.9433764
 General basis read from cards:  (6D, 7F)
 There are    76 symmetry adapted cartesian basis functions of A'  symmetry.
 There are    29 symmetry adapted cartesian basis functions of A"  symmetry.
 There are    76 symmetry adapted basis functions of A'  symmetry.
 There are    29 symmetry adapted basis functions of A"  symmetry.
   105 basis functions,   180 primitive gaussians,   105 cartesian basis functions
    20 alpha electrons       20 beta electrons
       nuclear repulsion energy       166.9267513168 Hartrees.
 NAtoms=   10 NActive=   10 NUniq=    8 SFac= 1.56D+00 NAtFMM=   60 NAOKFM=F Big=F
 Integral buffers will be    131072 words long.
 Raffenetti 2 integral format.
 Two-electron integral symmetry is turned on.
 ------------------------------------------------------------------------------
 Polarizable Continuum Model (PCM)
 =================================
 Model                : PCM (using non-symmetric T matrix).
 Atomic radii         : SMD-Coulomb.
 Polarization charges : Total charges.
 Charge compensation  : None.
 Solution method      : On-the-fly selection.
 Cavity type          : VdW (van der Waals Surface) (Alpha=1.000).
 Cavity algorithm     : GePol (No added spheres)
                        Default sphere list used, NSphG=   10.
                        Lebedev-Laikov grids with approx.  5.0 points / Ang**2.
                        Smoothing algorithm: York/Karplus (Gamma=1.0000).
                        Polarization charges: spherical gaussians, with
                                              point-specific exponents (IZeta= 3).
                        Self-potential: point-specific (ISelfS= 7).
                        Self-field    : sphere-specific E.n sum rule (ISelfD= 2).
 1st derivatives      : Analytical E(r).r(x)/FMM algorithm (CHGder, D1EAlg=3).
                        Cavity 1st derivative terms included.
 Solvent              : n-Pentadecane, Eps=   2.033300 Eps(inf)=   2.049192
 ------------------------------------------------------------------------------
 Spheres list:
 ISph  on   Nord     Re0    Alpha      Xe            Ye            Ze
    1   C      1    1.8500  1.000      0.115047     -1.899281      0.000000
    2   C      2    1.8500  1.000     -0.763382     -0.649928      0.000000
    3   C      3    1.8500  1.000      0.000000      0.656248     -0.000000
    4   O      4    2.2940  1.000      1.351700      0.722280     -0.000000
    5   O      5    2.2940  1.000     -0.634523      1.698744      0.000000
    6   H      6    1.2000  1.000     -0.529125     -2.803825      0.000000
    7   H      7    1.2000  1.000      0.753341     -1.925004      0.908802
    8   H      8    1.2000  1.000      0.753341     -1.925004     -0.908802
    9   H      9    1.2000  1.000     -1.412491     -0.678297      0.901606
   10   H     10    1.2000  1.000     -1.412491     -0.678297     -0.901606
 ------------------------------------------------------------------------------
 ------------------------------------------------------------------------------
 Atomic radii for non-electrostatic terms: SMD-CDS.
 ------------------------------------------------------------------------------
 Nuclear repulsion after PCM non-electrostatic terms =      166.9239900706 Hartrees.
 One-electron integrals computed using PRISM.
 NBasis=   105 RedAO= T EigKep=  1.61D-04  NBF=    76    29
 NBsUse=   105 1.00D-06 EigRej= -1.00D+00 NBFU=    76    29
 ExpMin= 4.38D-02 ExpMax= 5.48D+03 ExpMxC= 8.25D+02 IAcc=3 IRadAn=         5 AccDes= 0.00D+00
 Harris functional with IExCor= 1009 and IRadAn=       5 diagonalized for initial guess.
 HarFok:  IExCor= 1009 AccDes= 0.00D+00 IRadAn=         5 IDoV= 1 UseB2=F ITyADJ=14
 ICtDFT=  3500011 ScaDFX=  1.000000  1.000000  1.000000  1.000000
 FoFCou: FMM=F IPFlag=           0 FMFlag=      100000 FMFlg1=           0
         NFxFlg=           0 DoJE=T BraDBF=F KetDBF=T FulRan=T
         wScrn=  0.000000 ICntrl=     500 IOpCl=  0 I1Cent=   200000004 NGrid=           0
         NMat0=    1 NMatS0=      1 NMatT0=    0 NMatD0=    1 NMtDS0=    0 NMtDT0=    0
 Petite list used in FoFCou.
 Initial guess orbital symmetries:
       Occupied  (A') (A') (A') (A') (A') (A') (A') (A') (A') (A')
                 (A") (A') (A') (A') (A") (A') (A") (A') (A") (A')
       Virtual   (A") (A') (A') (A") (A') (A') (A') (A") (A') (A')
                 (A") (A') (A") (A') (A') (A') (A') (A") (A') (A")
                 (A') (A') (A') (A') (A") (A') (A') (A') (A') (A')
                 (A') (A") (A') (A") (A') (A') (A") (A') (A') (A")
                 (A') (A") (A') (A') (A') (A') (A") (A") (A') (A')
                 (A') (A') (A") (A") (A') (A') (A') (A") (A') (A')
                 (A") (A') (A") (A') (A') (A') (A") (A') (A') (A")
                 (A") (A') (A') (A") (A') (A") (A') (A') (A') (A')
                 (A') (A') (A') (A') (A')
 The electronic state of the initial guess is 1-A'.
 Keep R1 ints in memory in symmetry-blocked form, NReq=23632887.
 Requested convergence on RMS density matrix=1.00D-08 within 128 cycles.
 Requested convergence on MAX density matrix=1.00D-06.
 Requested convergence on             energy=1.00D-06.
 No special actions if energy rises.
 Inv3:  Mode=1 IEnd=     3339075.
 Iteration    1 A*A^-1 deviation from unit magnitude is 3.44D-15 for   1046.
 Iteration    1 A*A^-1 deviation from orthogonality  is 2.02D-15 for    400    141.
 Iteration    1 A^-1*A deviation from unit magnitude is 3.55D-15 for   1046.
 Iteration    1 A^-1*A deviation from orthogonality  is 1.02D-15 for   1021    931.
 Error on total polarization charges =  0.01404
 SCF Done:  E(RM062X) =  -267.760428734     A.U. after   14 cycles
            NFock= 14  Conv=0.43D-08     -V/T= 2.0092
 SMD-CDS (non-electrostatic) energy       (kcal/mol) =      -1.73
 (included in total energy above)

 **********************************************************************

            Population analysis using the SCF density.

 **********************************************************************

 Orbital symmetries:
       Occupied  (A') (A') (A') (A') (A') (A') (A') (A') (A') (A')
                 (A") (A') (A') (A") (A') (A') (A") (A') (A") (A')
       Virtual   (A') (A') (A") (A') (A') (A') (A") (A") (A') (A')
                 (A") (A') (A') (A") (A') (A') (A") (A') (A') (A')
                 (A") (A') (A") (A') (A') (A') (A') (A') (A') (A')
                 (A") (A') (A') (A") (A') (A') (A") (A') (A') (A")
                 (A') (A") (A') (A') (A') (A') (A") (A') (A") (A')
                 (A') (A') (A") (A") (A') (A') (A') (A') (A") (A')
                 (A') (A") (A") (A') (A') (A') (A") (A') (A') (A")
                 (A") (A') (A') (A") (A') (A") (A') (A') (A') (A')
                 (A') (A') (A') (A') (A')
 The electronic state is 1-A'.
 Alpha  occ. eigenvalues --  -19.47482 -19.45694 -10.52401 -10.46474 -10.46374
 Alpha  occ. eigenvalues --   -1.03214  -0.89784  -0.77922  -0.63670  -0.48148
 Alpha  occ. eigenvalues --   -0.44420  -0.41183  -0.38027  -0.35576  -0.34913
 Alpha  occ. eigenvalues --   -0.32132  -0.30634  -0.20120  -0.18434  -0.17369
 Alpha virt. eigenvalues --    0.08989   0.10419   0.12491   0.12522   0.14892
 Alpha virt. eigenvalues --    0.15276   0.15598   0.16257   0.16575   0.19212
 Alpha virt. eigenvalues --    0.19962   0.21655   0.22918   0.30898   0.31388
 Alpha virt. eigenvalues --    0.33937   0.34320   0.35608   0.37125   0.38021
 Alpha virt. eigenvalues --    0.38834   0.40248   0.41249   0.41798   0.42467
 Alpha virt. eigenvalues --    0.46601   0.48343   0.48958   0.61264   0.64167
 Alpha virt. eigenvalues --    0.77711   0.78267   0.81862   0.83396   0.87361
 Alpha virt. eigenvalues --    0.90648   0.94955   0.99634   1.02188   1.06796
 Alpha virt. eigenvalues --    1.12178   1.13722   1.21733   1.23943   1.24577
 Alpha virt. eigenvalues --    1.28509   1.41028   1.47466   1.48434   1.51688
 Alpha virt. eigenvalues --    1.52773   1.53636   1.55487   1.66504   1.69738
 Alpha virt. eigenvalues --    1.72042   1.77585   1.91975   1.94213   1.98470
 Alpha virt. eigenvalues --    2.02493   2.04907   2.07268   2.07978   2.13483
 Alpha virt. eigenvalues --    2.18474   2.19577   2.25344   2.33284   2.41341
 Alpha virt. eigenvalues --    2.42474   2.43741   2.63405   2.67059   2.70669
 Alpha virt. eigenvalues --    2.83162   2.94614   3.12618   3.27401   3.30791
 Alpha virt. eigenvalues --    4.27027   4.33410   4.50361   4.52052   4.73872
          Condensed to atoms (all electrons):
               1          2          3          4          5          6
     1  C    5.813691  -0.376396   0.024489   0.081058   0.064892   0.387474
     2  C   -0.376396   7.117767  -0.348901  -0.260967  -0.363556  -0.068921
     3  C    0.024489  -0.348901   4.956695   0.443255   0.520361   0.015070
     4  O    0.081058  -0.260967   0.443255   8.687528  -0.204805   0.001848
     5  O    0.064892  -0.363556   0.520361  -0.204805   8.598289  -0.000189
     6  H    0.387474  -0.068921   0.015070   0.001848  -0.000189   0.565993
     7  H    0.403384  -0.042347  -0.006355  -0.005093  -0.000233  -0.031625
     8  H    0.403384  -0.042347  -0.006355  -0.005093  -0.000233  -0.031625
     9  H   -0.054537   0.390358  -0.020102   0.001130  -0.003566  -0.002551
    10  H   -0.054537   0.390358  -0.020102   0.001130  -0.003566  -0.002551
               7          8          9         10
     1  C    0.403384   0.403384  -0.054537  -0.054537
     2  C   -0.042347  -0.042347   0.390358   0.390358
     3  C   -0.006355  -0.006355  -0.020102  -0.020102
     4  O   -0.005093  -0.005093   0.001130   0.001130
     5  O   -0.000233  -0.000233  -0.003566  -0.003566
     6  H   -0.031625  -0.031625  -0.002551  -0.002551
     7  H    0.494162  -0.021734  -0.004260   0.003802
     8  H   -0.021734   0.494162   0.003802  -0.004260
     9  H   -0.004260   0.003802   0.514052  -0.027182
    10  H    0.003802  -0.004260  -0.027182   0.514052
 Mulliken charges:
               1
     1  C   -0.692901
     2  C   -0.395048
     3  C    0.441945
     4  O   -0.739991
     5  O   -0.607394
     6  H    0.167077
     7  H    0.210299
     8  H    0.210299
     9  H    0.202856
    10  H    0.202856
 Sum of Mulliken charges =  -1.00000
 Mulliken charges with hydrogens summed into heavy atoms:
               1
     1  C   -0.105225
     2  C    0.010664
     3  C    0.441945
     4  O   -0.739991
     5  O   -0.607394
 Electronic spatial extent (au):  <R**2>=            448.2403
 Charge=             -1.0000 electrons
 Dipole moment (field-independent basis, Debye):
    X=             -3.0523    Y=             -6.3085    Z=             -0.0000  Tot=              7.0081
 Quadrupole moment (field-independent basis, Debye-Ang):
   XX=            -42.7955   YY=            -46.1066   ZZ=            -32.1832
   XY=              0.2397   XZ=              0.0000   YZ=              0.0000
 Traceless Quadrupole moment (field-independent basis, Debye-Ang):
   XX=             -2.4338   YY=             -5.7448   ZZ=              8.1786
   XY=              0.2397   XZ=              0.0000   YZ=              0.0000
 Octapole moment (field-independent basis, Debye-Ang**2):
  XXX=             -9.1525  YYY=             -9.7429  ZZZ=             -0.0000  XYY=              2.9258
  XXY=             -7.0947  XXZ=             -0.0000  XZZ=             -0.8904  YZZ=              0.6979
  YYZ=             -0.0000  XYZ=              0.0000
 Hexadecapole moment (field-independent basis, Debye-Ang**3):
 XXXX=           -195.2140 YYYY=           -449.0620 ZZZZ=            -50.3523 XXXY=             -8.4257
 XXXZ=              0.0000 YYYX=              5.1918 YYYZ=              0.0000 ZZZX=              0.0000
 ZZZY=              0.0000 XXYY=           -106.1175 XXZZ=            -37.3791 YYZZ=            -75.3459
 XXYZ=              0.0000 YYXZ=             -0.0000 ZZXY=             -2.3513
 N-N= 1.669239900706D+02 E-N=-9.691276884267D+02  KE= 2.653138737393D+02
 Symmetry A'   KE= 2.537710252484D+02
 Symmetry A"   KE= 1.154284849084D+01
 D1PCM: PCM CHGder 1st derivatives, ID1Alg=3 FixD1E=F DoIter=F DoCFld=F I1PDM=0.
 Calling FoFJK, ICntrl=      2127 FMM=F ISym2X=1 I1Cent= 0 IOpClX= 0 NMat=1 NMatS=1 NMatT=0.
 ***** Axes restored to original set *****
 -------------------------------------------------------------------
 Center     Atomic                   Forces (Hartrees/Bohr)
 Number     Number              X              Y              Z
 -------------------------------------------------------------------
      1        6          -0.006603922   -0.000453107    0.000012469
      2        6          -0.018185336    0.002582342    0.000016883
      3        6           0.004284378   -0.112228820    0.000504666
      4        8          -0.022747691    0.077368806   -0.000316723
      5        8           0.031613603    0.038343433   -0.000224534
      6        1           0.003583831   -0.006661919    0.000024711
      7        1           0.000455716    0.003382704   -0.011463951
      8        1           0.000491787    0.003487034    0.011431154
      9        1           0.003538954   -0.002953228   -0.009426792
     10        1           0.003568681   -0.002867245    0.009442117
 -------------------------------------------------------------------
 Cartesian Forces:  Max     0.112228820 RMS     0.027405523

 GradGradGradGradGradGradGradGradGradGradGradGradGradGradGradGradGradGrad
 Berny optimization.
 FormGI is forming the generalized inverse of G from B-inverse, IUseBI=4.
 Internal  Forces:  Max     0.074495391 RMS     0.017097532
 Search for a local minimum.
 Step number   1 out of a maximum of   49
 All quantities printed in internal units (Hartrees-Bohrs-Radians)
 Mixed Optimization -- RFO/linear search
 Second derivative matrix not updated -- first step.
 ITU=  0
     Eigenvalues ---    0.00405   0.00595   0.00595   0.03989   0.05459
     Eigenvalues ---    0.05617   0.05804   0.09592   0.13000   0.16000
     Eigenvalues ---    0.16000   0.16000   0.22061   0.25000   0.25000
     Eigenvalues ---    0.29678   0.31061   0.32460   0.32460   0.32510
     Eigenvalues ---    0.32510   0.32550   0.54323   0.95199
 RFO step:  Lambda=-2.60927644D-02 EMin= 4.05360551D-03
 Linear search not attempted -- first point.
 Iteration  1 RMS(Cart)=  0.05428799 RMS(Int)=  0.00332053
 Iteration  2 RMS(Cart)=  0.00335097 RMS(Int)=  0.00016765
 Iteration  3 RMS(Cart)=  0.00001449 RMS(Int)=  0.00016738
 Iteration  4 RMS(Cart)=  0.00000000 RMS(Int)=  0.00016738
 ClnCor:  largest displacement from symmetrization is 9.46D-10 for atom     8.
 Variable       Old X    -DE/DX   Delta X   Delta X   Delta X     New X
                                 (Linear)    (Quad)   (Total)
    R1        2.88610   0.00200   0.00000   0.00619   0.00619   2.89229
    R2        2.09850  -0.00724   0.00000  -0.02059  -0.02059   2.07791
    R3        2.09921  -0.01135   0.00000  -0.03230  -0.03230   2.06691
    R4        2.09921  -0.01135   0.00000  -0.03230  -0.03230   2.06691
    R5        2.85895   0.00795   0.00000   0.02360   0.02360   2.88256
    R6        2.10010  -0.00911   0.00000  -0.02598  -0.02598   2.07412
    R7        2.10010  -0.00911   0.00000  -0.02598  -0.02598   2.07412
    R8        2.55739  -0.07450   0.00000  -0.13085  -0.13085   2.42654
    R9        2.30625   0.04384   0.00000   0.04482   0.04482   2.35107
    A1        1.90995   0.00333   0.00000   0.02394   0.02372   1.93367
    A2        1.92776   0.00171   0.00000   0.00612   0.00601   1.93377
    A3        1.92776   0.00171   0.00000   0.00612   0.00601   1.93377
    A4        1.89068  -0.00143   0.00000  -0.00173  -0.00195   1.88873
    A5        1.89068  -0.00143   0.00000  -0.00173  -0.00195   1.88873
    A6        1.91623  -0.00398   0.00000  -0.03278  -0.03277   1.88346
    A7        1.99988   0.00103   0.00000   0.00862   0.00862   2.00851
    A8        1.89132   0.00309   0.00000   0.02614   0.02614   1.91746
    A9        1.89132   0.00309   0.00000   0.02614   0.02614   1.91746
   A10        1.89311  -0.00249   0.00000  -0.01820  -0.01848   1.87463
   A11        1.89311  -0.00249   0.00000  -0.01820  -0.01848   1.87463
   A12        1.89271  -0.00245   0.00000  -0.02677  -0.02743   1.86528
   A13        2.14851  -0.03466   0.00000  -0.12553  -0.12553   2.02298
   A14        2.06593  -0.00974   0.00000  -0.03529  -0.03529   2.03064
   A15        2.06874   0.04440   0.00000   0.16082   0.16082   2.22957
    D1       -3.14159  -0.00000   0.00000  -0.00000  -0.00000   3.14159
    D2        1.02522   0.00024   0.00000  -0.00160  -0.00159   1.02362
    D3       -1.02522  -0.00024   0.00000   0.00160   0.00159  -1.02362
    D4        1.06163  -0.00136   0.00000  -0.01655  -0.01661   1.04502
    D5       -1.05475  -0.00112   0.00000  -0.01815  -0.01821  -1.07296
    D6       -3.10518  -0.00160   0.00000  -0.01496  -0.01502  -3.12020
    D7       -1.06163   0.00136   0.00000   0.01655   0.01661  -1.04502
    D8        3.10518   0.00160   0.00000   0.01496   0.01502   3.12020
    D9        1.05475   0.00112   0.00000   0.01815   0.01821   1.07296
   D10        0.00000  -0.00000   0.00000  -0.00000  -0.00000   0.00000
   D11       -3.14159  -0.00000   0.00000  -0.00000  -0.00000   3.14159
   D12        2.11540   0.00283   0.00000   0.02596   0.02568   2.14108
   D13       -1.02620   0.00283   0.00000   0.02596   0.02568  -1.00052
   D14       -2.11540  -0.00283   0.00000  -0.02596  -0.02568  -2.14108
   D15        1.02620  -0.00283   0.00000  -0.02596  -0.02568   1.00052
         Item               Value     Threshold  Converged?
 Maximum Force            0.074495     0.000450     NO 
 RMS     Force            0.017098     0.000300     NO 
 Maximum Displacement     0.231684     0.001800     NO 
 RMS     Displacement     0.053248     0.001200     NO 
 Predicted change in Energy=-1.402597D-02
 GradGradGradGradGradGradGradGradGradGradGradGradGradGradGradGradGradGrad

                          Input orientation:                          
 ---------------------------------------------------------------------
 Center     Atomic      Atomic             Coordinates (Angstroms)
 Number     Number       Type             X           Y           Z
 ---------------------------------------------------------------------
      1          6           0       -5.352127   -2.189966   -0.001043
      2          6           0       -3.975907   -1.520249   -0.006263
      3          6           0       -2.789980   -2.479608   -0.003760
      4          8           0       -3.080212   -3.730433    0.002397
      5          8           0       -1.659510   -1.960101   -0.007908
      6          1           0       -6.152908   -1.436424   -0.003215
      7          1           0       -5.475368   -2.817303    0.886410
      8          1           0       -5.478155   -2.825363   -0.882349
      9          1           0       -3.874215   -0.870133    0.872194
     10          1           0       -3.876993   -0.878168   -0.890925
 ---------------------------------------------------------------------
                    Distance matrix (angstroms):
                    1          2          3          4          5
     1  C    0.000000
     2  C    1.530532   0.000000
     3  C    2.578467   1.525385   0.000000
     4  O    2.744931   2.384797   1.284070   0.000000
     5  O    3.699771   2.357789   1.244134   2.269929   0.000000
     6  H    1.099583   2.178617   3.521011   3.834576   4.523814
     7  H    1.093761   2.174304   2.849167   2.711468   4.011905
     8  H    1.093761   2.174304   2.849167   2.711468   4.011905
     9  H    2.165346   1.097579   2.129148   3.093267   2.620597
    10  H    2.165346   1.097579   2.129148   3.093267   2.620597
                    6          7          8          9         10
     6  H    0.000000
     7  H    1.776885   0.000000
     8  H    1.776885   1.768780   0.000000
     9  H    2.505887   2.520985   3.077981   0.000000
    10  H    2.505887   3.077981   2.520985   1.763139   0.000000
 Stoichiometry    C3H5O2(1-)
 Framework group  CS[SG(C3HO2),X(H4)]
 Deg. of freedom    15
 Full point group                 CS      NOp   2
 Largest Abelian subgroup         CS      NOp   2
 Largest concise Abelian subgroup CS      NOp   2
                         Standard orientation:                         
 ---------------------------------------------------------------------
 Center     Atomic      Atomic             Coordinates (Angstroms)
 Number     Number       Type             X           Y           Z
 ---------------------------------------------------------------------
      1          6           0        0.207270   -1.873223   -0.000000
      2          6           0       -0.714036   -0.651043    0.000000
      3          6           0       -0.000000    0.696900    0.000000
      4          8           0        1.283285    0.652017   -0.000000
      5          8           0       -0.726739    1.706712    0.000000
      6          1           0       -0.378659   -2.803691   -0.000000
      7          1           0        0.850827   -1.874422    0.884390
      8          1           0        0.850827   -1.874422   -0.884390
      9          1           0       -1.367384   -0.676550    0.881570
     10          1           0       -1.367384   -0.676550   -0.881570
 ---------------------------------------------------------------------
 Rotational constants (GHZ):     10.2225895      4.0392857      3.0034287
 Basis read from rwf:  (6D, 7F)
 There are    76 symmetry adapted cartesian basis functions of A'  symmetry.
 There are    29 symmetry adapted cartesian basis functions of A"  symmetry.
 There are    76 symmetry adapted basis functions of A'  symmetry.
 There are    29 symmetry adapted basis functions of A"  symmetry.
   105 basis functions,   180 primitive gaussians,   105 cartesian basis functions
    20 alpha electrons       20 beta electrons
       nuclear repulsion energy       168.5088302573 Hartrees.
 NAtoms=   10 NActive=   10 NUniq=    8 SFac= 1.56D+00 NAtFMM=   60 NAOKFM=F Big=F
 Integral buffers will be    131072 words long.
 Raffenetti 2 integral format.
 Two-electron integral symmetry is turned on.
 ------------------------------------------------------------------------------
 Polarizable Continuum Model (PCM)
 =================================
 Model                : PCM (using non-symmetric T matrix).
 Atomic radii         : SMD-Coulomb.
 Polarization charges : Total charges.
 Charge compensation  : None.
 Solution method      : On-the-fly selection.
 Cavity type          : VdW (van der Waals Surface) (Alpha=1.000).
 Cavity algorithm     : GePol (No added spheres)
                        Default sphere list used, NSphG=   10.
                        Lebedev-Laikov grids with approx.  5.0 points / Ang**2.
                        Smoothing algorithm: York/Karplus (Gamma=1.0000).
                        Polarization charges: spherical gaussians, with
                                              point-specific exponents (IZeta= 3).
                        Self-potential: point-specific (ISelfS= 7).
                        Self-field    : sphere-specific E.n sum rule (ISelfD= 2).
 1st derivatives      : Analytical E(r).r(x)/FMM algorithm (CHGder, D1EAlg=3).
                        Cavity 1st derivative terms included.
 Solvent              : n-Pentadecane, Eps=   2.033300 Eps(inf)=   2.049192
 ------------------------------------------------------------------------------
 Spheres list:
 ISph  on   Nord     Re0    Alpha      Xe            Ye            Ze
    1   C      1    1.8500  1.000      0.207270     -1.873223     -0.000000
    2   C      2    1.8500  1.000     -0.714036     -0.651043      0.000000
    3   C      3    1.8500  1.000     -0.000000      0.696900      0.000000
    4   O      4    2.2940  1.000      1.283285      0.652017     -0.000000
    5   O      5    2.2940  1.000     -0.726739      1.706712      0.000000
    6   H      6    1.2000  1.000     -0.378659     -2.803691     -0.000000
    7   H      7    1.2000  1.000      0.850827     -1.874422      0.884390
    8   H      8    1.2000  1.000      0.850827     -1.874422     -0.884390
    9   H      9    1.2000  1.000     -1.367384     -0.676550      0.881570
   10   H     10    1.2000  1.000     -1.367384     -0.676550     -0.881570
 ------------------------------------------------------------------------------
 ------------------------------------------------------------------------------
 Atomic radii for non-electrostatic terms: SMD-CDS.
 ------------------------------------------------------------------------------
 Nuclear repulsion after PCM non-electrostatic terms =      168.5060068942 Hartrees.
 One-electron integrals computed using PRISM.
 NBasis=   105 RedAO= T EigKep=  1.71D-04  NBF=    76    29
 NBsUse=   105 1.00D-06 EigRej= -1.00D+00 NBFU=    76    29
 Initial guess from the checkpoint file:  "Prop.M062X_6-31pGd_opt_Pentadecane.chk"
 B after Tr=     0.000001   -0.000000    0.000000
         Rot=    0.999874    0.000000    0.000000   -0.015865 Ang=  -1.82 deg.
 Initial guess orbital symmetries:
       Occupied  (A') (A') (A') (A') (A') (A') (A') (A') (A') (A')
                 (A") (A') (A') (A") (A') (A') (A") (A') (A") (A')
       Virtual   (A') (A') (A') (A') (A') (A') (A') (A') (A') (A')
                 (A') (A') (A') (A') (A') (A') (A') (A') (A') (A')
                 (A') (A') (A') (A') (A') (A') (A') (A') (A') (A')
                 (A') (A') (A') (A') (A') (A') (A') (A') (A') (A')
                 (A') (A') (A') (A') (A') (A') (A') (A') (A') (A')
                 (A') (A') (A') (A') (A') (A') (A') (A') (A') (A')
                 (A") (A") (A") (A") (A") (A") (A") (A") (A") (A")
                 (A") (A") (A") (A") (A") (A") (A") (A") (A") (A")
                 (A") (A") (A") (A") (A")
 ExpMin= 4.38D-02 ExpMax= 5.48D+03 ExpMxC= 8.25D+02 IAcc=2 IRadAn=         4 AccDes= 0.00D+00
 Harris functional with IExCor= 1009 and IRadAn=       4 diagonalized for initial guess.
 HarFok:  IExCor= 1009 AccDes= 0.00D+00 IRadAn=         4 IDoV= 1 UseB2=F ITyADJ=14
 ICtDFT=  3500011 ScaDFX=  1.000000  1.000000  1.000000  1.000000
 FoFCou: FMM=F IPFlag=           0 FMFlag=      100000 FMFlg1=           0
         NFxFlg=           0 DoJE=T BraDBF=F KetDBF=T FulRan=T
         wScrn=  0.000000 ICntrl=     500 IOpCl=  0 I1Cent=   200000004 NGrid=           0
         NMat0=    1 NMatS0=      1 NMatT0=    0 NMatD0=    1 NMtDS0=    0 NMtDT0=    0
 Petite list used in FoFCou.
 Keep R1 ints in memory in symmetry-blocked form, NReq=23632887.
 Requested convergence on RMS density matrix=1.00D-08 within 128 cycles.
 Requested convergence on MAX density matrix=1.00D-06.
 Requested convergence on             energy=1.00D-06.
 No special actions if energy rises.
 Inv3:  Mode=1 IEnd=     3263547.
 Iteration    1 A*A^-1 deviation from unit magnitude is 5.11D-15 for   1041.
 Iteration    1 A*A^-1 deviation from orthogonality  is 1.74D-15 for   1041    916.
 Iteration    1 A^-1*A deviation from unit magnitude is 5.00D-15 for   1041.
 Iteration    1 A^-1*A deviation from orthogonality  is 9.52D-15 for    296    244.
 EnCoef did     1 forward-backward iterations
 Error on total polarization charges =  0.01407
 SCF Done:  E(RM062X) =  -267.775757561     A.U. after   13 cycles
            NFock= 13  Conv=0.26D-08     -V/T= 2.0087
 SMD-CDS (non-electrostatic) energy       (kcal/mol) =      -1.77
 (included in total energy above)
 D1PCM: PCM CHGder 1st derivatives, ID1Alg=3 FixD1E=F DoIter=F DoCFld=F I1PDM=0.
 Calling FoFJK, ICntrl=      2127 FMM=F ISym2X=1 I1Cent= 0 IOpClX= 0 NMat=1 NMatS=1 NMatT=0.
 ***** Axes restored to original set *****
 -------------------------------------------------------------------
 Center     Atomic                   Forces (Hartrees/Bohr)
 Number     Number              X              Y              Z
 -------------------------------------------------------------------
      1        6           0.001235444    0.004760742   -0.000023641
      2        6          -0.012301906    0.003729253    0.000002388
      3        6          -0.010421332   -0.041361024    0.000204897
      4        8           0.009374581    0.026381480   -0.000134987
      5        8           0.010693027    0.005224003   -0.000040652
      6        1           0.000092742   -0.000357710    0.000001484
      7        1           0.000172472   -0.001027617   -0.000743745
      8        1           0.000174830   -0.001020799    0.000752532
      9        1           0.000488706    0.001831888   -0.000875566
     10        1           0.000491436    0.001839784    0.000857290
 -------------------------------------------------------------------
 Cartesian Forces:  Max     0.041361024 RMS     0.009910380

 GradGradGradGradGradGradGradGradGradGradGradGradGradGradGradGradGradGrad
 Berny optimization.
 Using GEDIIS/GDIIS optimizer.
 FormGI is forming the generalized inverse of G from B-inverse, IUseBI=4.
 Internal  Forces:  Max     0.027795177 RMS     0.005461940
 Search for a local minimum.
 Step number   2 out of a maximum of   49
 All quantities printed in internal units (Hartrees-Bohrs-Radians)
 Mixed Optimization -- RFO/linear search
 Update second derivatives using D2CorX and points    1    2
 DE= -1.53D-02 DEPred=-1.40D-02 R= 1.09D+00
 TightC=F SS=  1.41D+00  RLast= 2.75D-01 DXNew= 5.0454D-01 8.2353D-01
 Trust test= 1.09D+00 RLast= 2.75D-01 DXMaxT set to 5.05D-01
 ITU=  1  0
 Use linear search instead of GDIIS.
     Eigenvalues ---    0.00405   0.00595   0.00595   0.03870   0.05282
     Eigenvalues ---    0.05580   0.05590   0.09822   0.13091   0.15992
     Eigenvalues ---    0.16000   0.16004   0.21934   0.24471   0.27095
     Eigenvalues ---    0.29735   0.31201   0.32460   0.32479   0.32510
     Eigenvalues ---    0.32544   0.35960   0.43874   0.92983
 RFO step:  Lambda=-2.65376649D-03 EMin= 4.05360551D-03
 Quartic linear search produced a step of  0.15129.
 Iteration  1 RMS(Cart)=  0.02085566 RMS(Int)=  0.00019921
 Iteration  2 RMS(Cart)=  0.00027455 RMS(Int)=  0.00004917
 Iteration  3 RMS(Cart)=  0.00000007 RMS(Int)=  0.00004917
 ClnCor:  largest displacement from symmetrization is 1.10D-08 for atom     8.
 Variable       Old X    -DE/DX   Delta X   Delta X   Delta X     New X
                                 (Linear)    (Quad)   (Total)
    R1        2.89229  -0.00256   0.00094  -0.01031  -0.00938   2.88291
    R2        2.07791  -0.00030  -0.00311   0.00044  -0.00267   2.07524
    R3        2.06691  -0.00004  -0.00489   0.00218  -0.00271   2.06420
    R4        2.06691  -0.00004  -0.00489   0.00218  -0.00271   2.06420
    R5        2.88256   0.01366   0.00357   0.04845   0.05202   2.93458
    R6        2.07412   0.00043  -0.00393   0.00339  -0.00054   2.07358
    R7        2.07412   0.00043  -0.00393   0.00339  -0.00054   2.07358
    R8        2.42654  -0.02780  -0.01980  -0.05063  -0.07043   2.35611
    R9        2.35107   0.01188   0.00678   0.01192   0.01870   2.36978
    A1        1.93367   0.00042   0.00359   0.00357   0.00710   1.94077
    A2        1.93377   0.00020   0.00091  -0.00070   0.00017   1.93394
    A3        1.93377   0.00020   0.00091  -0.00070   0.00017   1.93394
    A4        1.88873   0.00007  -0.00029   0.00358   0.00323   1.89196
    A5        1.88873   0.00007  -0.00029   0.00358   0.00323   1.89196
    A6        1.88346  -0.00100  -0.00496  -0.00945  -0.01442   1.86904
    A7        2.00851   0.00197   0.00130   0.01430   0.01550   2.02401
    A8        1.91746   0.00004   0.00395   0.00001   0.00391   1.92137
    A9        1.91746   0.00004   0.00395   0.00001   0.00391   1.92137
   A10        1.87463  -0.00062  -0.00280   0.00167  -0.00127   1.87336
   A11        1.87463  -0.00062  -0.00280   0.00167  -0.00127   1.87336
   A12        1.86528  -0.00104  -0.00415  -0.02025  -0.02450   1.84078
   A13        2.02298   0.00528  -0.01899   0.03420   0.01521   2.03819
   A14        2.03064  -0.00293  -0.00534  -0.01049  -0.01583   2.01481
   A15        2.22957  -0.00235   0.02433  -0.02370   0.00063   2.23019
    D1       -3.14159  -0.00000   0.00000  -0.00000  -0.00000   3.14159
    D2        1.02362  -0.00061  -0.00024  -0.01232  -0.01259   1.01103
    D3       -1.02362   0.00061   0.00024   0.01232   0.01259  -1.01103
    D4        1.04502  -0.00050  -0.00251  -0.00638  -0.00891   1.03611
    D5       -1.07296  -0.00111  -0.00275  -0.01871  -0.02150  -1.09446
    D6       -3.12020   0.00011  -0.00227   0.00594   0.00368  -3.11652
    D7       -1.04502   0.00050   0.00251   0.00638   0.00891  -1.03611
    D8        3.12020  -0.00011   0.00227  -0.00594  -0.00368   3.11652
    D9        1.07296   0.00111   0.00275   0.01871   0.02150   1.09446
   D10        0.00000   0.00000   0.00000   0.00000  -0.00000   0.00000
   D11        3.14159   0.00000  -0.00000   0.00000   0.00000   3.14159
   D12        2.14108   0.00091   0.00389   0.01089   0.01473   2.15581
   D13       -1.00052   0.00091   0.00389   0.01089   0.01473  -0.98579
   D14       -2.14108  -0.00091  -0.00389  -0.01089  -0.01473  -2.15581
   D15        1.00052  -0.00091  -0.00389  -0.01089  -0.01473   0.98579
         Item               Value     Threshold  Converged?
 Maximum Force            0.027795     0.000450     NO 
 RMS     Force            0.005462     0.000300     NO 
 Maximum Displacement     0.085616     0.001800     NO 
 RMS     Displacement     0.020669     0.001200     NO 
 Predicted change in Energy=-1.674337D-03
 GradGradGradGradGradGradGradGradGradGradGradGradGradGradGradGradGradGrad

                          Input orientation:                          
 ---------------------------------------------------------------------
 Center     Atomic      Atomic             Coordinates (Angstroms)
 Number     Number       Type             X           Y           Z
 ---------------------------------------------------------------------
      1          6           0       -5.365694   -2.181370   -0.001061
      2          6           0       -3.985777   -1.530858   -0.006199
      3          6           0       -2.775406   -2.503756   -0.003673
      4          8           0       -3.034906   -3.723239    0.002293
      5          8           0       -1.646072   -1.958613   -0.007936
      6          1           0       -6.161460   -1.424584   -0.003256
      7          1           0       -5.493404   -2.813458    0.880605
      8          1           0       -5.496173   -2.821465   -0.876523
      9          1           0       -3.876866   -0.871224    0.863898
     10          1           0       -3.879618   -0.879183   -0.882610
 ---------------------------------------------------------------------
                    Distance matrix (angstroms):
                    1          2          3          4          5
     1  C    0.000000
     2  C    1.525569   0.000000
     3  C    2.610274   1.552913   0.000000
     4  O    2.794627   2.389720   1.246801   0.000000
     5  O    3.726292   2.378487   1.254031   2.245633   0.000000
     6  H    1.098168   2.178279   3.553868   3.880616   4.546860
     7  H    1.092328   2.168969   2.874957   2.764660   4.040078
     8  H    1.092328   2.168969   2.874957   2.764660   4.040078
     9  H    2.163618   1.097291   2.151989   3.096005   2.630390
    10  H    2.163618   1.097291   2.151989   3.096005   2.630390
                    6          7          8          9         10
     6  H    0.000000
     7  H    1.776648   0.000000
     8  H    1.776648   1.757149   0.000000
     9  H    2.505500   2.527004   3.074843   0.000000
    10  H    2.505500   3.074843   2.527004   1.746528   0.000000
 Stoichiometry    C3H5O2(1-)
 Framework group  CS[SG(C3HO2),X(H4)]
 Deg. of freedom    15
 Full point group                 CS      NOp   2
 Largest Abelian subgroup         CS      NOp   2
 Largest concise Abelian subgroup CS      NOp   2
                         Standard orientation:                         
 ---------------------------------------------------------------------
 Center     Atomic      Atomic             Coordinates (Angstroms)
 Number     Number       Type             X           Y           Z
 ---------------------------------------------------------------------
      1          6           0        0.257650   -1.890958   -0.000000
      2          6           0       -0.681569   -0.688780   -0.000000
      3          6           0       -0.000000    0.706570    0.000000
      4          8           0        1.246695    0.722800    0.000000
      5          8           0       -0.781108    1.687623    0.000000
      6          1           0       -0.304708   -2.834211   -0.000000
      7          1           0        0.906553   -1.876383    0.878574
      8          1           0        0.906553   -1.876383   -0.878574
      9          1           0       -1.344790   -0.728702    0.873264
     10          1           0       -1.344790   -0.728702   -0.873264
 ---------------------------------------------------------------------
 Rotational constants (GHZ):     10.3725786      3.9567218      2.9682198
 Basis read from rwf:  (6D, 7F)
 There are    76 symmetry adapted cartesian basis functions of A'  symmetry.
 There are    29 symmetry adapted cartesian basis functions of A"  symmetry.
 There are    76 symmetry adapted basis functions of A'  symmetry.
 There are    29 symmetry adapted basis functions of A"  symmetry.
   105 basis functions,   180 primitive gaussians,   105 cartesian basis functions
    20 alpha electrons       20 beta electrons
       nuclear repulsion energy       168.3602284367 Hartrees.
 NAtoms=   10 NActive=   10 NUniq=    8 SFac= 1.56D+00 NAtFMM=   60 NAOKFM=F Big=F
 Integral buffers will be    131072 words long.
 Raffenetti 2 integral format.
 Two-electron integral symmetry is turned on.
 ------------------------------------------------------------------------------
 Polarizable Continuum Model (PCM)
 =================================
 Model                : PCM (using non-symmetric T matrix).
 Atomic radii         : SMD-Coulomb.
 Polarization charges : Total charges.
 Charge compensation  : None.
 Solution method      : On-the-fly selection.
 Cavity type          : VdW (van der Waals Surface) (Alpha=1.000).
 Cavity algorithm     : GePol (No added spheres)
                        Default sphere list used, NSphG=   10.
                        Lebedev-Laikov grids with approx.  5.0 points / Ang**2.
                        Smoothing algorithm: York/Karplus (Gamma=1.0000).
                        Polarization charges: spherical gaussians, with
                                              point-specific exponents (IZeta= 3).
                        Self-potential: point-specific (ISelfS= 7).
                        Self-field    : sphere-specific E.n sum rule (ISelfD= 2).
 1st derivatives      : Analytical E(r).r(x)/FMM algorithm (CHGder, D1EAlg=3).
                        Cavity 1st derivative terms included.
 Solvent              : n-Pentadecane, Eps=   2.033300 Eps(inf)=   2.049192
 ------------------------------------------------------------------------------
 Spheres list:
 ISph  on   Nord     Re0    Alpha      Xe            Ye            Ze
    1   C      1    1.8500  1.000      0.257650     -1.890958     -0.000000
    2   C      2    1.8500  1.000     -0.681569     -0.688780      0.000000
    3   C      3    1.8500  1.000     -0.000000      0.706570      0.000000
    4   O      4    2.2940  1.000      1.246695      0.722800     -0.000000
    5   O      5    2.2940  1.000     -0.781108      1.687623      0.000000
    6   H      6    1.2000  1.000     -0.304708     -2.834211     -0.000000
    7   H      7    1.2000  1.000      0.906553     -1.876383      0.878574
    8   H      8    1.2000  1.000      0.906553     -1.876383     -0.878574
    9   H      9    1.2000  1.000     -1.344790     -0.728702      0.873264
   10   H     10    1.2000  1.000     -1.344790     -0.728702     -0.873264
 ------------------------------------------------------------------------------
 ------------------------------------------------------------------------------
 Atomic radii for non-electrostatic terms: SMD-CDS.
 ------------------------------------------------------------------------------
 Nuclear repulsion after PCM non-electrostatic terms =      168.3573836904 Hartrees.
 One-electron integrals computed using PRISM.
 NBasis=   105 RedAO= T EigKep=  1.79D-04  NBF=    76    29
 NBsUse=   105 1.00D-06 EigRej= -1.00D+00 NBFU=    76    29
 Initial guess from the checkpoint file:  "Prop.M062X_6-31pGd_opt_Pentadecane.chk"
 B after Tr=     0.000000    0.000000   -0.000000
         Rot=    0.999860   -0.000000    0.000000   -0.016737 Ang=  -1.92 deg.
 Initial guess orbital symmetries:
       Occupied  (A') (A') (A') (A') (A') (A') (A') (A') (A') (A')
                 (A") (A') (A') (A") (A') (A') (A") (A") (A') (A')
       Virtual   (A') (A') (A') (A') (A') (A') (A') (A') (A') (A')
                 (A') (A') (A') (A') (A') (A') (A') (A') (A') (A')
                 (A') (A') (A') (A') (A') (A') (A') (A') (A') (A')
                 (A') (A') (A') (A') (A') (A') (A') (A') (A') (A')
                 (A') (A') (A') (A') (A') (A') (A') (A') (A') (A')
                 (A') (A') (A') (A') (A') (A') (A') (A') (A') (A')
                 (A") (A") (A") (A") (A") (A") (A") (A") (A") (A")
                 (A") (A") (A") (A") (A") (A") (A") (A") (A") (A")
                 (A") (A") (A") (A") (A")
 ExpMin= 4.38D-02 ExpMax= 5.48D+03 ExpMxC= 8.25D+02 IAcc=2 IRadAn=         4 AccDes= 0.00D+00
 Harris functional with IExCor= 1009 and IRadAn=       4 diagonalized for initial guess.
 HarFok:  IExCor= 1009 AccDes= 0.00D+00 IRadAn=         4 IDoV= 1 UseB2=F ITyADJ=14
 ICtDFT=  3500011 ScaDFX=  1.000000  1.000000  1.000000  1.000000
 FoFCou: FMM=F IPFlag=           0 FMFlag=      100000 FMFlg1=           0
         NFxFlg=           0 DoJE=T BraDBF=F KetDBF=T FulRan=T
         wScrn=  0.000000 ICntrl=     500 IOpCl=  0 I1Cent=   200000004 NGrid=           0
         NMat0=    1 NMatS0=      1 NMatT0=    0 NMatD0=    1 NMtDS0=    0 NMtDT0=    0
 Petite list used in FoFCou.
 Keep R1 ints in memory in symmetry-blocked form, NReq=23632887.
 Requested convergence on RMS density matrix=1.00D-08 within 128 cycles.
 Requested convergence on MAX density matrix=1.00D-06.
 Requested convergence on             energy=1.00D-06.
 No special actions if energy rises.
 Inv3:  Mode=1 IEnd=     3244800.
 Iteration    1 A*A^-1 deviation from unit magnitude is 3.89D-15 for   1026.
 Iteration    1 A*A^-1 deviation from orthogonality  is 4.01D-15 for   1026    727.
 Iteration    1 A^-1*A deviation from unit magnitude is 4.11D-15 for    378.
 Iteration    1 A^-1*A deviation from orthogonality  is 1.10D-15 for    869    765.
 Error on total polarization charges =  0.01406
 SCF Done:  E(RM062X) =  -267.777053842     A.U. after   12 cycles
            NFock= 12  Conv=0.47D-08     -V/T= 2.0085
 SMD-CDS (non-electrostatic) energy       (kcal/mol) =      -1.79
 (included in total energy above)
 D1PCM: PCM CHGder 1st derivatives, ID1Alg=3 FixD1E=F DoIter=F DoCFld=F I1PDM=0.
 Calling FoFJK, ICntrl=      2127 FMM=F ISym2X=1 I1Cent= 0 IOpClX= 0 NMat=1 NMatS=1 NMatT=0.
 ***** Axes restored to original set *****
 -------------------------------------------------------------------
 Center     Atomic                   Forces (Hartrees/Bohr)
 Number     Number              X              Y              Z
 -------------------------------------------------------------------
      1        6           0.002342254    0.001348532   -0.000009835
      2        6          -0.001471113    0.002615728   -0.000009602
      3        6          -0.001845880    0.004985668   -0.000019811
      4        8          -0.002813202   -0.011223732    0.000055578
      5        8           0.003223999    0.003607757   -0.000021520
      6        1          -0.000198536   -0.000125942    0.000000887
      7        1          -0.000204791   -0.001119866    0.001144100
      8        1          -0.000208379   -0.001130244   -0.001133195
      9        1           0.000588768    0.000523779    0.000595634
     10        1           0.000586881    0.000518320   -0.000602235
 -------------------------------------------------------------------
 Cartesian Forces:  Max     0.011223732 RMS     0.002640028

 GradGradGradGradGradGradGradGradGradGradGradGradGradGradGradGradGradGrad
 Berny optimization.
 Using GEDIIS/GDIIS optimizer.
 FormGI is forming the generalized inverse of G from B-inverse, IUseBI=4.
 Internal  Forces:  Max     0.011529433 RMS     0.002223710
 Search for a local minimum.
 Step number   3 out of a maximum of   49
 All quantities printed in internal units (Hartrees-Bohrs-Radians)
 Mixed Optimization -- RFO/linear search
 Update second derivatives using D2CorX and points    1    2    3
 DE= -1.30D-03 DEPred=-1.67D-03 R= 7.74D-01
 TightC=F SS=  1.41D+00  RLast= 1.10D-01 DXNew= 8.4853D-01 3.2942D-01
 Trust test= 7.74D-01 RLast= 1.10D-01 DXMaxT set to 5.05D-01
 ITU=  1  1  0
 Use linear search instead of GDIIS.
     Eigenvalues ---    0.00405   0.00595   0.00595   0.03730   0.05331
     Eigenvalues ---    0.05505   0.05586   0.09932   0.13210   0.15958
     Eigenvalues ---    0.16000   0.16002   0.21512   0.23340   0.27428
     Eigenvalues ---    0.29816   0.31832   0.32460   0.32497   0.32510
     Eigenvalues ---    0.32580   0.35042   0.59088   0.91187
 RFO step:  Lambda=-2.27763942D-04 EMin= 4.05360551D-03
 Quartic linear search produced a step of -0.17229.
 Iteration  1 RMS(Cart)=  0.00916411 RMS(Int)=  0.00003158
 Iteration  2 RMS(Cart)=  0.00004827 RMS(Int)=  0.00001552
 Iteration  3 RMS(Cart)=  0.00000000 RMS(Int)=  0.00001552
 ClnCor:  largest displacement from symmetrization is 7.49D-09 for atom    10.
 Variable       Old X    -DE/DX   Delta X   Delta X   Delta X     New X
                                 (Linear)    (Quad)   (Total)
    R1        2.88291  -0.00109   0.00162  -0.00494  -0.00333   2.87958
    R2        2.07524   0.00004   0.00046  -0.00042   0.00004   2.07528
    R3        2.06420   0.00161   0.00047   0.00357   0.00404   2.06824
    R4        2.06420   0.00161   0.00047   0.00357   0.00404   2.06824
    R5        2.93458   0.00049  -0.00896   0.01193   0.00297   2.93755
    R6        2.07358   0.00085   0.00009   0.00208   0.00217   2.07575
    R7        2.07358   0.00085   0.00009   0.00208   0.00217   2.07575
    R8        2.35611   0.01153   0.01213   0.00368   0.01581   2.37192
    R9        2.36978   0.00450  -0.00322   0.00739   0.00416   2.37394
    A1        1.94077   0.00043  -0.00122   0.00494   0.00372   1.94449
    A2        1.93394   0.00001  -0.00003  -0.00044  -0.00047   1.93347
    A3        1.93394   0.00001  -0.00003  -0.00044  -0.00047   1.93347
    A4        1.89196  -0.00013  -0.00056   0.00111   0.00055   1.89251
    A5        1.89196  -0.00013  -0.00056   0.00111   0.00055   1.89251
    A6        1.86904  -0.00023   0.00248  -0.00663  -0.00415   1.86489
    A7        2.02401  -0.00364  -0.00267  -0.01122  -0.01386   2.01015
    A8        1.92137   0.00135  -0.00067   0.00744   0.00675   1.92812
    A9        1.92137   0.00135  -0.00067   0.00744   0.00675   1.92812
   A10        1.87336   0.00088   0.00022   0.00064   0.00089   1.87425
   A11        1.87336   0.00088   0.00022   0.00064   0.00089   1.87425
   A12        1.84078  -0.00059   0.00422  -0.00479  -0.00060   1.84017
   A13        2.03819   0.00090  -0.00262   0.00617   0.00355   2.04173
   A14        2.01481  -0.00270   0.00273  -0.01212  -0.00939   2.00541
   A15        2.23019   0.00180  -0.00011   0.00595   0.00585   2.23604
    D1        3.14159   0.00000   0.00000  -0.00000   0.00000   3.14159
    D2        1.01103   0.00043   0.00217   0.00143   0.00363   1.01466
    D3       -1.01103  -0.00043  -0.00217  -0.00143  -0.00363  -1.01466
    D4        1.03611  -0.00013   0.00153  -0.00442  -0.00289   1.03322
    D5       -1.09446   0.00029   0.00370  -0.00299   0.00074  -1.09371
    D6       -3.11652  -0.00056  -0.00063  -0.00585  -0.00651  -3.12303
    D7       -1.03611   0.00013  -0.00153   0.00442   0.00289  -1.03322
    D8        3.11652   0.00056   0.00063   0.00585   0.00651   3.12303
    D9        1.09446  -0.00029  -0.00370   0.00299  -0.00074   1.09371
   D10       -0.00000   0.00000   0.00000   0.00000   0.00000   0.00000
   D11        3.14159   0.00000   0.00000   0.00000   0.00000   3.14159
   D12        2.15581  -0.00008  -0.00254   0.00245  -0.00007   2.15573
   D13       -0.98579  -0.00008  -0.00254   0.00245  -0.00007  -0.98586
   D14       -2.15581   0.00008   0.00254  -0.00245   0.00007  -2.15573
   D15        0.98579   0.00008   0.00254  -0.00245   0.00007   0.98586
         Item               Value     Threshold  Converged?
 Maximum Force            0.011529     0.000450     NO 
 RMS     Force            0.002224     0.000300     NO 
 Maximum Displacement     0.026991     0.001800     NO 
 RMS     Displacement     0.009191     0.001200     NO 
 Predicted change in Energy=-1.742099D-04
 GradGradGradGradGradGradGradGradGradGradGradGradGradGradGradGradGradGrad

                          Input orientation:                          
 ---------------------------------------------------------------------
 Center     Atomic      Atomic             Coordinates (Angstroms)
 Number     Number       Type             X           Y           Z
 ---------------------------------------------------------------------
      1          6           0       -5.361026   -2.180784   -0.001071
      2          6           0       -3.986655   -1.522706   -0.006235
      3          6           0       -2.782707   -2.506028   -0.003651
      4          8           0       -3.049189   -3.732567    0.002358
      5          8           0       -1.652252   -1.958144   -0.007928
      6          1           0       -6.164159   -1.431787   -0.003219
      7          1           0       -5.483561   -2.817050    0.880975
      8          1           0       -5.486330   -2.825061   -0.876891
      9          1           0       -3.873371   -0.862828    0.864569
     10          1           0       -3.876125   -0.870794   -0.883369
 ---------------------------------------------------------------------
                    Distance matrix (angstroms):
                    1          2          3          4          5
     1  C    0.000000
     2  C    1.523808   0.000000
     3  C    2.598753   1.554483   0.000000
     4  O    2.784355   2.400500   1.255168   0.000000
     5  O    3.715457   2.374668   1.256234   2.258344   0.000000
     6  H    1.098191   2.179404   3.547987   3.872552   4.542509
     7  H    1.094465   2.168685   2.859005   2.745233   4.025767
     8  H    1.094465   2.168685   2.859005   2.745233   4.025767
     9  H    2.167823   1.098440   2.154868   3.107745   2.625707
    10  H    2.167823   1.098440   2.154868   3.107745   2.625707
                    6          7          8          9         10
     6  H    0.000000
     7  H    1.778754   0.000000
     8  H    1.778754   1.757887   0.000000
     9  H    2.514852   2.532186   3.079720   0.000000
    10  H    2.514852   3.079720   2.532186   1.747958   0.000000
 Stoichiometry    C3H5O2(1-)
 Framework group  CS[SG(C3HO2),X(H4)]
 Deg. of freedom    15
 Full point group                 CS      NOp   2
 Largest Abelian subgroup         CS      NOp   2
 Largest concise Abelian subgroup CS      NOp   2
                         Standard orientation:                         
 ---------------------------------------------------------------------
 Center     Atomic      Atomic             Coordinates (Angstroms)
 Number     Number       Type             X           Y           Z
 ---------------------------------------------------------------------
      1          6           0        0.260211   -1.881886   -0.000000
      2          6           0       -0.688851   -0.689715    0.000000
      3          6           0        0.000000    0.703807    0.000000
      4          8           0        1.255080    0.718665   -0.000000
      5          8           0       -0.787057    1.682921    0.000000
      6          1           0       -0.289989   -2.832309   -0.000000
      7          1           0        0.911981   -1.859328    0.878943
      8          1           0        0.911981   -1.859328   -0.878943
      9          1           0       -1.353159   -0.727479    0.873979
     10          1           0       -1.353159   -0.727479   -0.873979
 ---------------------------------------------------------------------
 Rotational constants (GHZ):     10.2356216      3.9845613      2.9725517
 Basis read from rwf:  (6D, 7F)
 There are    76 symmetry adapted cartesian basis functions of A'  symmetry.
 There are    29 symmetry adapted cartesian basis functions of A"  symmetry.
 There are    76 symmetry adapted basis functions of A'  symmetry.
 There are    29 symmetry adapted basis functions of A"  symmetry.
   105 basis functions,   180 primitive gaussians,   105 cartesian basis functions
    20 alpha electrons       20 beta electrons
       nuclear repulsion energy       168.1712499943 Hartrees.
 NAtoms=   10 NActive=   10 NUniq=    8 SFac= 1.56D+00 NAtFMM=   60 NAOKFM=F Big=F
 Integral buffers will be    131072 words long.
 Raffenetti 2 integral format.
 Two-electron integral symmetry is turned on.
 ------------------------------------------------------------------------------
 Polarizable Continuum Model (PCM)
 =================================
 Model                : PCM (using non-symmetric T matrix).
 Atomic radii         : SMD-Coulomb.
 Polarization charges : Total charges.
 Charge compensation  : None.
 Solution method      : On-the-fly selection.
 Cavity type          : VdW (van der Waals Surface) (Alpha=1.000).
 Cavity algorithm     : GePol (No added spheres)
                        Default sphere list used, NSphG=   10.
                        Lebedev-Laikov grids with approx.  5.0 points / Ang**2.
                        Smoothing algorithm: York/Karplus (Gamma=1.0000).
                        Polarization charges: spherical gaussians, with
                                              point-specific exponents (IZeta= 3).
                        Self-potential: point-specific (ISelfS= 7).
                        Self-field    : sphere-specific E.n sum rule (ISelfD= 2).
 1st derivatives      : Analytical E(r).r(x)/FMM algorithm (CHGder, D1EAlg=3).
                        Cavity 1st derivative terms included.
 Solvent              : n-Pentadecane, Eps=   2.033300 Eps(inf)=   2.049192
 ------------------------------------------------------------------------------
 Spheres list:
 ISph  on   Nord     Re0    Alpha      Xe            Ye            Ze
    1   C      1    1.8500  1.000      0.260211     -1.881886      0.000000
    2   C      2    1.8500  1.000     -0.688851     -0.689715      0.000000
    3   C      3    1.8500  1.000     -0.000000      0.703807      0.000000
    4   O      4    2.2940  1.000      1.255080      0.718665     -0.000000
    5   O      5    2.2940  1.000     -0.787057      1.682921      0.000000
    6   H      6    1.2000  1.000     -0.289989     -2.832309      0.000000
    7   H      7    1.2000  1.000      0.911981     -1.859328      0.878943
    8   H      8    1.2000  1.000      0.911981     -1.859328     -0.878943
    9   H      9    1.2000  1.000     -1.353159     -0.727479      0.873979
   10   H     10    1.2000  1.000     -1.353159     -0.727479     -0.873979
 ------------------------------------------------------------------------------
 ------------------------------------------------------------------------------
 Atomic radii for non-electrostatic terms: SMD-CDS.
 ------------------------------------------------------------------------------
 Nuclear repulsion after PCM non-electrostatic terms =      168.1684251401 Hartrees.
 One-electron integrals computed using PRISM.
 NBasis=   105 RedAO= T EigKep=  1.79D-04  NBF=    76    29
 NBsUse=   105 1.00D-06 EigRej= -1.00D+00 NBFU=    76    29
 Initial guess from the checkpoint file:  "Prop.M062X_6-31pGd_opt_Pentadecane.chk"
 B after Tr=    -0.000000    0.000000    0.000000
         Rot=    1.000000    0.000000   -0.000000   -0.000591 Ang=  -0.07 deg.
 Initial guess orbital symmetries:
       Occupied  (A') (A') (A') (A') (A') (A') (A') (A') (A') (A')
                 (A") (A') (A') (A") (A') (A') (A") (A") (A') (A')
       Virtual   (A') (A') (A') (A') (A') (A') (A') (A') (A') (A')
                 (A') (A') (A') (A') (A') (A') (A') (A') (A') (A')
                 (A') (A') (A') (A') (A') (A') (A') (A') (A') (A')
                 (A') (A') (A') (A') (A') (A') (A') (A') (A') (A')
                 (A') (A') (A') (A') (A') (A') (A') (A') (A') (A')
                 (A') (A') (A') (A') (A') (A') (A') (A') (A') (A')
                 (A") (A") (A") (A") (A") (A") (A") (A") (A") (A")
                 (A") (A") (A") (A") (A") (A") (A") (A") (A") (A")
                 (A") (A") (A") (A") (A")
 ExpMin= 4.38D-02 ExpMax= 5.48D+03 ExpMxC= 8.25D+02 IAcc=2 IRadAn=         4 AccDes= 0.00D+00
 Harris functional with IExCor= 1009 and IRadAn=       4 diagonalized for initial guess.
 HarFok:  IExCor= 1009 AccDes= 0.00D+00 IRadAn=         4 IDoV= 1 UseB2=F ITyADJ=14
 ICtDFT=  3500011 ScaDFX=  1.000000  1.000000  1.000000  1.000000
 FoFCou: FMM=F IPFlag=           0 FMFlag=      100000 FMFlg1=           0
         NFxFlg=           0 DoJE=T BraDBF=F KetDBF=T FulRan=T
         wScrn=  0.000000 ICntrl=     500 IOpCl=  0 I1Cent=   200000004 NGrid=           0
         NMat0=    1 NMatS0=      1 NMatT0=    0 NMatD0=    1 NMtDS0=    0 NMtDT0=    0
 Petite list used in FoFCou.
 Keep R1 ints in memory in symmetry-blocked form, NReq=23632887.
 Requested convergence on RMS density matrix=1.00D-08 within 128 cycles.
 Requested convergence on MAX density matrix=1.00D-06.
 Requested convergence on             energy=1.00D-06.
 No special actions if energy rises.
 Inv3:  Mode=1 IEnd=     3226107.
 Iteration    1 A*A^-1 deviation from unit magnitude is 5.33D-15 for   1030.
 Iteration    1 A*A^-1 deviation from orthogonality  is 1.81D-15 for    876    610.
 Iteration    1 A^-1*A deviation from unit magnitude is 5.11D-15 for   1030.
 Iteration    1 A^-1*A deviation from orthogonality  is 1.16D-15 for   1024    942.
 Error on total polarization charges =  0.01404
 SCF Done:  E(RM062X) =  -267.777221463     A.U. after   11 cycles
            NFock= 11  Conv=0.46D-08     -V/T= 2.0086
 SMD-CDS (non-electrostatic) energy       (kcal/mol) =      -1.77
 (included in total energy above)
 D1PCM: PCM CHGder 1st derivatives, ID1Alg=3 FixD1E=F DoIter=F DoCFld=F I1PDM=0.
 Calling FoFJK, ICntrl=      2127 FMM=F ISym2X=1 I1Cent= 0 IOpClX= 0 NMat=1 NMatS=1 NMatT=0.
 ***** Axes restored to original set *****
 -------------------------------------------------------------------
 Center     Atomic                   Forces (Hartrees/Bohr)
 Number     Number              X              Y              Z
 -------------------------------------------------------------------
      1        6           0.000468885    0.000251917   -0.000001887
      2        6          -0.000557042    0.000629138   -0.000001989
      3        6          -0.001078842   -0.000363125    0.000003354
      4        8           0.000490223    0.000755491   -0.000004215
      5        8           0.000467956   -0.000458894    0.000001354
      6        1          -0.000276513   -0.000116306    0.000000966
      7        1          -0.000021327   -0.000074125    0.000089233
      8        1          -0.000021607   -0.000074935   -0.000088486
      9        1           0.000264281   -0.000274155    0.000094118
     10        1           0.000263987   -0.000275005   -0.000092448
 -------------------------------------------------------------------
 Cartesian Forces:  Max     0.001078842 RMS     0.000362924

 GradGradGradGradGradGradGradGradGradGradGradGradGradGradGradGradGradGrad
 Berny optimization.
 Using GEDIIS/GDIIS optimizer.
 FormGI is forming the generalized inverse of G from B-inverse, IUseBI=4.
 Internal  Forces:  Max     0.000873981 RMS     0.000271786
 Search for a local minimum.
 Step number   4 out of a maximum of   49
 All quantities printed in internal units (Hartrees-Bohrs-Radians)
 Mixed Optimization -- En-DIIS/RFO-DIIS
 Update second derivatives using D2CorX and points    1    2    3    4
 DE= -1.68D-04 DEPred=-1.74D-04 R= 9.62D-01
 TightC=F SS=  1.41D+00  RLast= 3.02D-02 DXNew= 8.4853D-01 9.0514D-02
 Trust test= 9.62D-01 RLast= 3.02D-02 DXMaxT set to 5.05D-01
 ITU=  1  1  1  0
 Use linear search instead of GDIIS.
     Eigenvalues ---    0.00405   0.00595   0.00595   0.03800   0.05225
     Eigenvalues ---    0.05475   0.05519   0.09541   0.13135   0.15686
     Eigenvalues ---    0.16000   0.16014   0.20495   0.24552   0.27761
     Eigenvalues ---    0.29796   0.31878   0.32458   0.32460   0.32510
     Eigenvalues ---    0.32579   0.34637   0.65026   0.91635
 RFO step:  Lambda=-1.51114438D-05 EMin= 4.05360551D-03
 Quartic linear search produced a step of -0.00813.
 Iteration  1 RMS(Cart)=  0.00340280 RMS(Int)=  0.00000808
 Iteration  2 RMS(Cart)=  0.00000945 RMS(Int)=  0.00000341
 Iteration  3 RMS(Cart)=  0.00000000 RMS(Int)=  0.00000341
 ClnCor:  largest displacement from symmetrization is 8.72D-09 for atom     4.
 Variable       Old X    -DE/DX   Delta X   Delta X   Delta X     New X
                                 (Linear)    (Quad)   (Total)
    R1        2.87958  -0.00009   0.00003  -0.00058  -0.00056   2.87902
    R2        2.07528   0.00010  -0.00000   0.00027   0.00027   2.07555
    R3        2.06824   0.00013  -0.00003   0.00061   0.00058   2.06882
    R4        2.06824   0.00013  -0.00003   0.00061   0.00058   2.06882
    R5        2.93755  -0.00009  -0.00002   0.00024   0.00022   2.93777
    R6        2.07575  -0.00006  -0.00002  -0.00009  -0.00011   2.07564
    R7        2.07575  -0.00006  -0.00002  -0.00009  -0.00011   2.07564
    R8        2.37192  -0.00087  -0.00013  -0.00113  -0.00126   2.37066
    R9        2.37394   0.00024  -0.00003   0.00073   0.00070   2.37464
    A1        1.94449   0.00048  -0.00003   0.00379   0.00375   1.94824
    A2        1.93347  -0.00009   0.00000  -0.00078  -0.00078   1.93269
    A3        1.93347  -0.00009   0.00000  -0.00078  -0.00078   1.93269
    A4        1.89251  -0.00016  -0.00000  -0.00054  -0.00055   1.89196
    A5        1.89251  -0.00016  -0.00000  -0.00054  -0.00055   1.89196
    A6        1.86489  -0.00001   0.00003  -0.00134  -0.00131   1.86359
    A7        2.01015  -0.00057   0.00011  -0.00436  -0.00425   2.00590
    A8        1.92812   0.00030  -0.00005   0.00270   0.00264   1.93076
    A9        1.92812   0.00030  -0.00005   0.00270   0.00264   1.93076
   A10        1.87425  -0.00002  -0.00001  -0.00176  -0.00176   1.87249
   A11        1.87425  -0.00002  -0.00001  -0.00176  -0.00176   1.87249
   A12        1.84017   0.00004   0.00000   0.00290   0.00289   1.84307
   A13        2.04173   0.00010  -0.00003   0.00052   0.00049   2.04222
   A14        2.00541   0.00062   0.00008   0.00169   0.00176   2.00718
   A15        2.23604  -0.00072  -0.00005  -0.00221  -0.00225   2.23379
    D1        3.14159  -0.00000   0.00000  -0.00000   0.00000   3.14159
    D2        1.01466   0.00020  -0.00003   0.00340   0.00337   1.01803
    D3       -1.01466  -0.00020   0.00003  -0.00340  -0.00337  -1.01803
    D4        1.03322  -0.00006   0.00002  -0.00133  -0.00131   1.03191
    D5       -1.09371   0.00014  -0.00001   0.00207   0.00206  -1.09165
    D6       -3.12303  -0.00026   0.00005  -0.00473  -0.00468  -3.12771
    D7       -1.03322   0.00006  -0.00002   0.00133   0.00131  -1.03191
    D8        3.12303   0.00026  -0.00005   0.00473   0.00468   3.12771
    D9        1.09371  -0.00014   0.00001  -0.00207  -0.00206   1.09165
   D10        0.00000   0.00000  -0.00000   0.00000  -0.00000   0.00000
   D11        3.14159   0.00000   0.00000   0.00000   0.00000  -3.14159
   D12        2.15573  -0.00001   0.00000  -0.00083  -0.00083   2.15490
   D13       -0.98586  -0.00001   0.00000  -0.00083  -0.00083  -0.98669
   D14       -2.15573   0.00001  -0.00000   0.00083   0.00083  -2.15490
   D15        0.98586   0.00001  -0.00000   0.00083   0.00083   0.98669
         Item               Value     Threshold  Converged?
 Maximum Force            0.000874     0.000450     NO 
 RMS     Force            0.000272     0.000300     YES
 Maximum Displacement     0.008642     0.001800     NO 
 RMS     Displacement     0.003407     0.001200     NO 
 Predicted change in Energy=-7.617080D-06
 GradGradGradGradGradGradGradGradGradGradGradGradGradGradGradGradGradGrad

                          Input orientation:                          
 ---------------------------------------------------------------------
 Center     Atomic      Atomic             Coordinates (Angstroms)
 Number     Number       Type             X           Y           Z
 ---------------------------------------------------------------------
      1          6           0       -5.360070   -2.180286   -0.001075
      2          6           0       -3.987366   -1.519416   -0.006249
      3          6           0       -2.785419   -2.505365   -0.003650
      4          8           0       -3.053762   -3.730816    0.002358
      5          8           0       -1.652508   -1.961720   -0.007912
      6          1           0       -6.167698   -1.435927   -0.003194
      7          1           0       -5.479990   -2.817825    0.880794
      8          1           0       -5.482759   -2.825833   -0.876714
      9          1           0       -3.871523   -0.861294    0.865476
     10          1           0       -3.874280   -0.869268   -0.884295
 ---------------------------------------------------------------------
                    Distance matrix (angstroms):
                    1          2          3          4          5
     1  C    0.000000
     2  C    1.523513   0.000000
     3  C    2.595093   1.554599   0.000000
     4  O    2.779066   2.400412   1.254502   0.000000
     5  O    3.714004   2.376383   1.256604   2.256838   0.000000
     6  H    1.098334   2.181932   3.547324   3.868222   4.545703
     7  H    1.094773   2.168095   2.853171   2.737112   4.021483
     8  H    1.094773   2.168095   2.853171   2.737112   4.021483
     9  H    2.169428   1.098384   2.153594   3.106100   2.626360
    10  H    2.169428   1.098384   2.153594   3.106100   2.626360
                    6          7          8          9         10
     6  H    0.000000
     7  H    1.778768   0.000000
     8  H    1.778768   1.757528   0.000000
     9  H    2.521351   2.532866   3.080701   0.000000
    10  H    2.521351   3.080701   2.532866   1.749791   0.000000
 Stoichiometry    C3H5O2(1-)
 Framework group  CS[SG(C3HO2),X(H4)]
 Deg. of freedom    15
 Full point group                 CS      NOp   2
 Largest Abelian subgroup         CS      NOp   2
 Largest concise Abelian subgroup CS      NOp   2
                         Standard orientation:                         
[...]
 Rotational               0.889              2.981             25.383
 Vibrational             50.720             11.629             11.073
 Vibration     1          0.594              1.981              5.272
 Vibration     2          0.646              1.814              1.978
 Vibration     3          0.673              1.731              1.607
 Vibration     4          0.854              1.252              0.661
 Vibration     5          0.941              1.066              0.478
                       Q            Log10(Q)             Ln(Q)
 Total Bot       0.336915D-22        -22.472479        -51.744795
 Total V=0       0.304789D+14         13.483999         31.048055
 Vib (Bot)       0.174543D-34        -34.758097        -80.033477
 Vib (Bot)    1  0.520759D+01          0.716636          1.650116
 Vib (Bot)    2  0.909313D+00         -0.041287         -0.095066
 Vib (Bot)    3  0.720878D+00         -0.142138         -0.327285
 Vib (Bot)    4  0.329632D+00         -0.481970         -1.109778
 Vib (Bot)    5  0.259830D+00         -0.585311         -1.347727
 Vib (V=0)       0.157899D+02          1.198381          2.759373
 Vib (V=0)    1  0.573153D+01          0.758271          1.745983
 Vib (V=0)    2  0.153771D+01          0.186876          0.430297
 Vib (V=0)    3  0.137731D+01          0.139030          0.320129
 Vib (V=0)    4  0.109888D+01          0.040950          0.094292
 Vib (V=0)    5  0.106348D+01          0.026730          0.061548
 Electronic      0.100000D+01          0.000000          0.000000
 Translational   0.245300D+08          7.389698         17.015408
 Rotational      0.786902D+05          4.895921         11.273274
 ***** Axes restored to original set *****
 -------------------------------------------------------------------
 Center     Atomic                   Forces (Hartrees/Bohr)
 Number     Number              X              Y              Z
 -------------------------------------------------------------------
      1        6           0.000026179    0.000020378   -0.000000134
      2        6          -0.000076554    0.000161415   -0.000000615
      3        6          -0.000098317    0.000034854   -0.000000004
      4        8           0.000040450   -0.000067601    0.000000244
      5        8           0.000066395   -0.000079523    0.000000258
      6        1          -0.000047291    0.000007710    0.000000039
      7        1          -0.000000106    0.000080555   -0.000055363
      8        1           0.000000068    0.000081056    0.000054627
      9        1           0.000044541   -0.000119559   -0.000029551
     10        1           0.000044636   -0.000119286    0.000030499
 -------------------------------------------------------------------
 Cartesian Forces:  Max     0.000161415 RMS     0.000062328
 FormGI is forming the generalized inverse of G from B-inverse, IUseBI=4.

 GradGradGradGradGradGradGradGradGradGradGradGradGradGradGradGradGradGrad
 Berny optimization.
 Internal  Forces:  Max     0.000106995 RMS     0.000047034
 Search for a local minimum.
 Step number   1 out of a maximum of    2
 All quantities printed in internal units (Hartrees-Bohrs-Radians)
 Second derivative matrix not updated -- analytic derivatives used.
 ITU=  0
     Eigenvalues ---    0.00027   0.00196   0.03337   0.04187   0.04595
     Eigenvalues ---    0.04601   0.07660   0.08017   0.11013   0.12305
     Eigenvalues ---    0.14665   0.15893   0.19666   0.22264   0.23683
     Eigenvalues ---    0.31531   0.33276   0.33512   0.33981   0.34532
     Eigenvalues ---    0.35349   0.35889   0.57789   0.79353
 Angle between quadratic step and forces=  46.79 degrees.
 Linear search not attempted -- first point.
 Iteration  1 RMS(Cart)=  0.00039883 RMS(Int)=  0.00000016
 Iteration  2 RMS(Cart)=  0.00000015 RMS(Int)=  0.00000006
 ClnCor:  largest displacement from symmetrization is 9.97D-09 for atom     5.
 Variable       Old X    -DE/DX   Delta X   Delta X   Delta X     New X
                                 (Linear)    (Quad)   (Total)
    R1        2.87902  -0.00003   0.00000  -0.00017  -0.00017   2.87886
    R2        2.07555   0.00002   0.00000   0.00006   0.00006   2.07561
    R3        2.06882  -0.00008   0.00000  -0.00020  -0.00020   2.06862
    R4        2.06882  -0.00008   0.00000  -0.00020  -0.00020   2.06862
    R5        2.93777   0.00004   0.00000   0.00019   0.00019   2.93795
    R6        2.07564  -0.00009   0.00000  -0.00031  -0.00031   2.07534
    R7        2.07564  -0.00009   0.00000  -0.00031  -0.00031   2.07534
    R8        2.37066   0.00003   0.00000   0.00003   0.00003   2.37070
    R9        2.37464   0.00005   0.00000   0.00008   0.00008   2.37472
    A1        1.94824   0.00010   0.00000   0.00077   0.00077   1.94902
    A2        1.93269  -0.00003   0.00000  -0.00021  -0.00021   1.93248
    A3        1.93269  -0.00003   0.00000  -0.00021  -0.00021   1.93248
    A4        1.89196  -0.00003   0.00000  -0.00020  -0.00020   1.89177
    A5        1.89196  -0.00003   0.00000  -0.00020  -0.00020   1.89177
    A6        1.86359   0.00002   0.00000   0.00000   0.00000   1.86359
    A7        2.00590   0.00008   0.00000   0.00005   0.00005   2.00595
    A8        1.93076  -0.00001   0.00000   0.00021   0.00021   1.93097
    A9        1.93076  -0.00001   0.00000   0.00021   0.00021   1.93097
   A10        1.87249  -0.00006   0.00000  -0.00066  -0.00066   1.87182
   A11        1.87249  -0.00006   0.00000  -0.00066  -0.00066   1.87182
   A12        1.84307   0.00005   0.00000   0.00089   0.00089   1.84396
   A13        2.04222   0.00009   0.00000   0.00041   0.00041   2.04263
   A14        2.00718   0.00002   0.00000  -0.00007  -0.00007   2.00711
   A15        2.23379  -0.00011   0.00000  -0.00034  -0.00034   2.23345
    D1        3.14159   0.00000   0.00000  -0.00000   0.00000   3.14159
    D2        1.01803   0.00002   0.00000   0.00068   0.00068   1.01871
    D3       -1.01803  -0.00002   0.00000  -0.00068  -0.00068  -1.01871
    D4        1.03191  -0.00001   0.00000  -0.00013  -0.00013   1.03178
    D5       -1.09165   0.00002   0.00000   0.00055   0.00055  -1.09110
    D6       -3.12771  -0.00003   0.00000  -0.00081  -0.00081  -3.12852
    D7       -1.03191   0.00001   0.00000   0.00013   0.00013  -1.03178
    D8        3.12771   0.00003   0.00000   0.00081   0.00081   3.12852
    D9        1.09165  -0.00002   0.00000  -0.00055  -0.00055   1.09110
   D10       -0.00000  -0.00000   0.00000   0.00000   0.00000   0.00000
   D11        3.14159  -0.00000   0.00000   0.00000   0.00000   3.14159
   D12        2.15490  -0.00000   0.00000  -0.00020  -0.00020   2.15470
   D13       -0.98669  -0.00000   0.00000  -0.00020  -0.00020  -0.98689
   D14       -2.15490   0.00000   0.00000   0.00020   0.00020  -2.15470
   D15        0.98669   0.00000   0.00000   0.00020   0.00020   0.98689
         Item               Value     Threshold  Converged?
 Maximum Force            0.000107     0.000450     YES
 RMS     Force            0.000047     0.000300     YES
 Maximum Displacement     0.001294     0.001800     YES
 RMS     Displacement     0.000399     0.001200     YES
 Predicted change in Energy=-2.499505D-07
 Optimization completed.
    -- Stationary point found.
                           ----------------------------
                           !   Optimized Parameters   !
                           ! (Angstroms and Degrees)  !
 --------------------------                            --------------------------
 ! Name  Definition              Value          Derivative Info.                !
 --------------------------------------------------------------------------------
 ! R1    R(1,2)                  1.5235         -DE/DX =    0.0                 !
 ! R2    R(1,6)                  1.0983         -DE/DX =    0.0                 !
 ! R3    R(1,7)                  1.0948         -DE/DX =   -0.0001              !
 ! R4    R(1,8)                  1.0948         -DE/DX =   -0.0001              !
 ! R5    R(2,3)                  1.5546         -DE/DX =    0.0                 !
 ! R6    R(2,9)                  1.0984         -DE/DX =   -0.0001              !
 ! R7    R(2,10)                 1.0984         -DE/DX =   -0.0001              !
 ! R8    R(3,4)                  1.2545         -DE/DX =    0.0                 !
 ! R9    R(3,5)                  1.2566         -DE/DX =    0.0                 !
 ! A1    A(2,1,6)              111.626          -DE/DX =    0.0001              !
 ! A2    A(2,1,7)              110.7348         -DE/DX =    0.0                 !
 ! A3    A(2,1,8)              110.7348         -DE/DX =    0.0                 !
 ! A4    A(6,1,7)              108.4015         -DE/DX =    0.0                 !
 ! A5    A(6,1,8)              108.4015         -DE/DX =    0.0                 !
 ! A6    A(7,1,8)              106.7756         -DE/DX =    0.0                 !
 ! A7    A(1,2,3)              114.9298         -DE/DX =    0.0001              !
 ! A8    A(1,2,9)              110.6244         -DE/DX =    0.0                 !
 ! A9    A(1,2,10)             110.6244         -DE/DX =    0.0                 !
 ! A10   A(3,2,9)              107.2856         -DE/DX =   -0.0001              !
 ! A11   A(3,2,10)             107.2856         -DE/DX =   -0.0001              !
 ! A12   A(9,2,10)             105.6            -DE/DX =    0.0                 !
 ! A13   A(2,3,4)              117.0105         -DE/DX =    0.0001              !
 ! A14   A(2,3,5)              115.0029         -DE/DX =    0.0                 !
 ! A15   A(4,3,5)              127.9865         -DE/DX =   -0.0001              !
 ! D1    D(6,1,2,3)            180.0            -DE/DX =    0.0                 !
 ! D2    D(6,1,2,9)             58.3289         -DE/DX =    0.0                 !
 ! D3    D(6,1,2,10)           -58.3289         -DE/DX =    0.0                 !
 ! D4    D(7,1,2,3)             59.1242         -DE/DX =    0.0                 !
 ! D5    D(7,1,2,9)            -62.5469         -DE/DX =    0.0                 !
 ! D6    D(7,1,2,10)          -179.2047         -DE/DX =    0.0                 !
 ! D7    D(8,1,2,3)            -59.1242         -DE/DX =    0.0                 !
 ! D8    D(8,1,2,9)            179.2047         -DE/DX =    0.0                 !
 ! D9    D(8,1,2,10)            62.5469         -DE/DX =    0.0                 !
 ! D10   D(1,2,3,4)              0.0            -DE/DX =    0.0                 !
 ! D11   D(1,2,3,5)            180.0            -DE/DX =    0.0                 !
 ! D12   D(9,2,3,4)            123.4667         -DE/DX =    0.0                 !
 ! D13   D(9,2,3,5)            -56.5333         -DE/DX =    0.0                 !
 ! D14   D(10,2,3,4)          -123.4667         -DE/DX =    0.0                 !
 ! D15   D(10,2,3,5)            56.5333         -DE/DX =    0.0                 !
 --------------------------------------------------------------------------------
 GradGradGradGradGradGradGradGradGradGradGradGradGradGradGradGradGradGrad


 Test job not archived.
 1\1\GINC-R3737\Freq\RM062X\Gen\C3H5O2(1-)\ROOT\20-Feb-2019\0\\#N Geom=
 AllCheck Guess=TCheck SCRF=Check Test GenChk RM062X/ChkBas Freq\\Prop.
 M062X_6-31pGd_opt_Pentadecane\\-1,1\C,-5.3600696907,-2.180285733,-0.00
 10745393\C,-3.9873658129,-1.5194156931,-0.0062487373\C,-2.7854190224,-
 2.5053647538,-0.0036495146\O,-3.0537622797,-3.7308157195,0.002357518\O
 ,-1.652508465,-1.9617200656,-0.0079117368\H,-6.1676977658,-1.435927161
 7,-0.0031941015\H,-5.4799901062,-2.8178245846,0.8807936761\H,-5.482759
 0363,-2.825833375,-0.8767136254\H,-3.8715227808,-0.8612944382,0.865475
 6016\H,-3.8742795225,-0.8692679751,-0.8842954062\\Version=ES64L-G09Rev
 E.01\State=1-A'\HF=-267.7772298\RMSD=8.678e-10\RMSF=6.233e-05\ZeroPoin
 t=0.0781718\Thermal=0.08366\Dipole=-2.2407592,1.0781309,-0.0013827\Dip
 oleDeriv=0.0136604,-0.0937213,0.0005762,-0.0830224,0.124748,0.000056,0
 .0005275,0.0000729,0.1083323,-0.1098592,0.2838508,-0.0007481,0.3465957
 ,-0.0874152,0.000929,-0.0010341,0.0010279,0.236284,2.0900649,0.4109084
 ,-0.0049704,0.403092,2.0785869,-0.0095431,-0.0049348,-0.0095555,0.1237
 85,-0.9535123,-0.0666782,0.0009688,-0.3357511,-1.8720987,0.0066381,0.0
 021949,0.0062142,-0.5314899,-1.8752592,-0.5524582,0.0045415,-0.3131994
 ,-1.0327073,0.0025081,0.0034512,0.0028851,-0.5906071,-0.2086265,0.1321
 121,-0.0001674,0.185293,-0.0764287,0.0003628,-0.0004097,0.0004466,0.06
 72581,0.0413583,-0.0231748,0.0070818,-0.0623092,-0.0121886,0.101988,0.
 0479189,0.1118418,-0.1034952,0.0411848,-0.023594,-0.0073215,-0.0630677
 ,-0.0141436,-0.102604,-0.0478003,-0.1125817,-0.1013666,-0.0195702,-0.0
 340188,-0.0317542,-0.0390323,-0.0554096,-0.1110539,-0.0091977,-0.15990
 14,-0.1030525,-0.0194409,-0.0332259,0.0317933,-0.0385986,-0.0529432,0.
 1107189,0.0092841,0.15955,-0.1056481\Polar=60.1967821,2.3099206,58.693
 5731,-0.0396437,-0.0810084,41.7155358\PG=CS [SG(C3H1O2),X(H4)]\NImag=0
 \\0.50629556,-0.03062884,0.56134318,0.00025835,0.00014095,0.58168406,-
 0.18674454,-0.05401142,0.00041393,0.47327570,-0.05626839,-0.11071728,0
 .00022756,0.04914857,0.52523666,0.00042422,0.00022400,-0.08023596,-0.0
 0009064,0.00007141,0.55790024,-0.02274969,0.00974690,-0.00001085,-0.11
 279737,0.03673662,-0.00013302,0.71859051,-0.00743635,0.01651591,-0.000
 07013,0.03394057,-0.09905112,-0.00001666,0.17972434,0.81528759,0.00006
 745,-0.00009720,-0.00144355,-0.00012028,-0.00002107,-0.09097281,-0.001
 56043,-0.00286833,0.24799245,-0.00151806,0.00191408,-0.00000909,0.0054
 8073,0.02341014,-0.00007729,-0.11598275,-0.07759751,0.00041439,0.13352
 656,-0.00349850,-0.00187727,0.00000608,0.00663715,-0.04888582,0.000322
 28,-0.05441091,-0.53302962,0.00216197,0.12319458,0.64942251,0.00001557
 ,-0.00000245,-0.00175360,-0.00000086,0.00029585,0.02413108,0.00030873,
 0.00219851,-0.07741243,-0.00072954,-0.00303134,0.02681015,-0.00559402,
 0.00977342,-0.00003194,-0.05639662,-0.00977191,0.00016379,-0.47441859,
 -0.13991084,0.00125887,-0.01787780,-0.08214162,0.00044550,0.55946171,0
 .00176335,-0.00156163,0.00001527,0.01526088,0.00966602,0.00001986,-0.1
 6083204,-0.16642277,0.00064694,-0.08192154,-0.06098412,0.00053141,0.22
 438355,0.21348024,0.00000456,0.00000265,0.00239884,0.00004972,0.000059
 30,0.01930039,0.00135421,0.00061398,-0.08006372,0.00044450,0.00053175,
 0.02730491,-0.00185913,-0.00119678,0.02843576,-0.18420351,0.12953848,-
 0.00038030,-0.02079814,0.02396768,-0.00007793,0.00120307,-0.00685973,0
 .00003044,-0.00014110,0.00110655,-0.00000363,-0.00516151,0.00064592,0.
 00000523,0.20225787,0.12927324,-0.17016133,0.00033972,-0.01397430,0.01
 213697,-0.00003756,-0.00192309,-0.00483769,0.00002819,0.00221344,0.001
 51523,-0.00000695,-0.00073877,0.00116603,-0.00000402,-0.14267237,0.184
 72802,-0.00037909,0.00033930,-0.05091797,0.00009497,-0.00009733,-0.000
 93598,0.00000795,0.00003597,0.00068391,-0.00000867,-0.00000520,0.00075
 643,0.00001154,-0.00000621,0.00002764,0.00040614,-0.00040110,0.0473825
 3,-0.04857054,-0.01442693,0.02114831,-0.00310057,-0.01776984,0.0259947
 1,0.00005844,-0.00226942,0.00068534,0.00001552,0.00115448,-0.00091224,
 0.00048584,0.00087711,-0.00030887,0.00237114,0.01285245,-0.02074729,0.
 05350844,-0.01556791,-0.13766512,0.12744456,-0.00234122,-0.00883471,0.
 01260670,0.00093543,-0.00118416,-0.00027365,0.00057418,0.00093287,-0.0
 0002209,-0.00026214,0.00035757,-0.00018627,-0.00266444,-0.01275526,0.0
 1763164,0.01968775,0.14793380,0.02282680,0.12637681,-0.22754282,0.0002
 3000,-0.00121922,0.00078183,-0.00012306,0.00277360,0.00001161,-0.00153
 377,-0.00104765,0.00032894,0.00006704,-0.00087334,-0.00005658,-0.00106
 579,-0.00174082,0.00146124,-0.02298299,-0.14021227,0.24434758,-0.04871
 043,-0.01502102,-0.02157397,-0.00318287,-0.01800188,-0.02581905,0.0000
 5669,-0.00228428,-0.00066470,0.00002320,0.00116604,0.00090261,0.000486
 59,0.00088262,0.00029912,0.00243972,0.01304661,0.02062642,-0.00040649,
 0.00212077,0.00228834,0.05365459,-0.01618061,-0.13998527,-0.12819191,-
 0.00238274,-0.00893740,-0.01251030,0.00093738,-0.00120683,0.00028181,0
 .00058820,0.00094254,0.00001463,-0.00026216,0.00036718,0.00018323,-0.0
 0270997,-0.01289905,-0.01749260,0.00215037,0.01187778,0.01598283,0.020
 34217,0.15049681,-0.02324197,-0.12712778,-0.22508277,-0.00019582,0.001
 36453,0.00096682,0.00011442,-0.00275532,0.00003603,0.00152942,0.001038
 37,0.00031159,-0.00006638,0.00086670,-0.00006694,0.00108743,0.00183058
 ,0.00153645,-0.00237487,-0.01629549,-0.02168860,0.02339742,0.14100389,
 0.24163842,-0.00414181,-0.01855668,-0.02553914,-0.04792534,-0.01599665
 ,-0.01684381,0.00304805,0.01144713,0.02173965,-0.00176585,0.00338391,-
 0.00272054,-0.00049407,-0.00053985,-0.00261734,0.00101492,0.00096097,-
 0.00012600,0.00148027,0.00048450,0.00049380,-0.00584088,-0.00296307,0.
 00025074,0.05481052,-0.00074233,-0.00798795,-0.01080881,-0.01642942,-0
 .13645332,-0.12802592,-0.00550743,-0.01312593,-0.02050027,0.00382203,-
 0.00400244,0.00337186,-0.00052135,0.00198645,0.00325864,-0.00017874,0.
 00055554,0.00035641,0.00038161,0.00001481,-0.00002469,-0.00263615,-0.0
 0067212,0.00004398,0.01989595,0.14770549,0.00061920,0.00162955,0.00152
 866,-0.01982784,-0.12428103,-0.21426397,-0.00386508,0.00080622,0.00064
 631,0.00097622,0.00010044,-0.00025156,0.00182327,0.00128325,0.00134040
 ,-0.00071252,0.00007582,0.00000219,-0.00037897,-0.00013944,0.00078825,
 0.00017051,0.00058345,0.00156192,0.02332280,0.13629557,0.23118654,-0.0
 0406296,-0.01832798,0.02572471,-0.04781099,-0.01545434,0.01645903,0.00
 299162,0.01124609,-0.02185073,-0.00176044,0.00340831,0.00269439,-0.000
 49154,-0.00052000,0.00262801,0.00101754,0.00096181,0.00011404,-0.00584
 206,-0.00296691,-0.00020038,0.00147989,0.00048042,-0.00050038,-0.00018
 580,0.00191582,-0.00212759,0.05466474,-0.00071367,-0.00790324,0.010896
 71,-0.01584809,-0.13415999,0.12734618,-0.00540720,-0.01294539,0.020641
 60,0.00380241,-0.00403388,-0.00334942,-0.00054819,0.00194502,-0.003262
 47,-0.00017338,0.00055154,-0.00036087,-0.00263759,-0.00067757,-0.00001
 526,0.00038513,0.00001636,0.00003052,0.00188379,0.01197947,-0.01635382
 ,0.01925679,0.14522767,-0.00059508,-0.00148583,0.00136509,0.01944682,0
 .12359999,-0.21667165,0.00390714,-0.00071784,0.00052221,-0.00100616,-0
 .00007669,-0.00022553,-0.00181256,-0.00128710,0.00137929,0.00071093,-0
 .00008387,0.00000356,-0.00012314,-0.00055369,0.00156854,0.00037329,0.0
 0014496,0.00078708,0.00203984,0.01603324,-0.02253874,-0.02294109,-0.13
 557316,0.23381014\\-0.00002618,-0.00002038,0.00000013,0.00007655,-0.00
 016142,0.00000061,0.00009832,-0.00003485,0.,-0.00004045,0.00006760,-0.
 00000024,-0.00006639,0.00007952,-0.00000026,0.00004729,-0.00000771,-0.
 00000004,0.00000011,-0.00008055,0.00005536,-0.00000007,-0.00008106,-0.
 00005463,-0.00004454,0.00011956,0.00002955,-0.00004464,0.00011929,-0.0
 0003050\\\@


 TO ERR IS HUMAN - AND TO BLAME IT ON A COMPUTER IS EVEN MORE SO.
 Job cpu time:       0 days  0 hours  4 minutes 26.5 seconds.
 File lengths (MBytes):  RWF=     34 Int=      0 D2E=      0 Chk=      5 Scr=      1
 Normal termination of Gaussian 09 at Wed Feb 20 09:19:22 2019.
WARNING: pbs_rusage is deprecated and values produced may not be accurate


=============================================================================
                                     Resource usage:
                                       CPU time:              00:00:45
   JobId:    5914352.r-man2            Elapsed time:          00:00:53
   Project:             q95            Requested time:        10:00:00
   Service Units:      0.06 
                                       Max physical memory:      276MB
                                       Max virtual memory:       382MB
                                       Requested memory:           0MB

                                       Number of cpus:               4

                                       Max jobfs disk use:       0.0GB
                                       Requested jobfs:          5.0GB
=============================================================================

