 Entering Gaussian System, Link 0=/apps/gaussian/g09e01/g09/g09
 AtFile(1): /home/507/hio507/Basis/6-31pGd.gbs
 Initial command:
 /apps/gaussian/g09e01/g09/l1.exe "/jobfs/local/5914350.r-man2/Gau-33142.inp" -scrdir="/jobfs/local/5914350.r-man2/"
 Entering Link 1 = /apps/gaussian/g09e01/g09/l1.exe PID=     33143.
  
 Copyright (c) 1988,1990,1992,1993,1995,1998,2003,2009,2015,
            Gaussian, Inc.  All Rights Reserved.
  
 This is part of the Gaussian(R) 09 program.  It is based on
 the Gaussian(R) 03 system (copyright 2003, Gaussian, Inc.),
 the Gaussian(R) 98 system (copyright 1998, Gaussian, Inc.),
 the Gaussian(R) 94 system (copyright 1995, Gaussian, Inc.),
 the Gaussian 92(TM) system (copyright 1992, Gaussian, Inc.),
 the Gaussian 90(TM) system (copyright 1990, Gaussian, Inc.),
 the Gaussian 88(TM) system (copyright 1988, Gaussian, Inc.),
 the Gaussian 86(TM) system (copyright 1986, Carnegie Mellon
 University), and the Gaussian 82(TM) system (copyright 1983,
 Carnegie Mellon University). Gaussian is a federally registered
 trademark of Gaussian, Inc.
  
 This software contains proprietary and confidential information,
 including trade secrets, belonging to Gaussian, Inc.
  
 This software is provided under written license and may be
 used, copied, transmitted, or stored only in accord with that
 written license.
  
 The following legend is applicable only to US Government
 contracts under FAR:
  
                    RESTRICTED RIGHTS LEGEND
  
 Use, reproduction and disclosure by the US Government is
 subject to restrictions as set forth in subparagraphs (a)
 and (c) of the Commercial Computer Software - Restricted
 Rights clause in FAR 52.227-19.
  
 Gaussian, Inc.
 340 Quinnipiac St., Bldg. 40, Wallingford CT 06492
  
  
 ---------------------------------------------------------------
 Warning -- This program may not be used in any manner that
 competes with the business of Gaussian, Inc. or will provide
 assistance to any competitor of Gaussian, Inc.  The licensee
 of this program is prohibited from giving any competitor of
 Gaussian, Inc. access to this program.  By using this program,
 the user acknowledges that Gaussian, Inc. is engaged in the
 business of creating and licensing software in the field of
 computational chemistry and represents and warrants to the
 licensee that it is not a competitor of Gaussian, Inc. and that
 it will not use this program in any manner prohibited above.
 ---------------------------------------------------------------
  

 Cite this work as:
 Gaussian 09, Revision E.01,
 M. J. Frisch, G. W. Trucks, H. B. Schlegel, G. E. Scuseria, 
 M. A. Robb, J. R. Cheeseman, G. Scalmani, V. Barone, B. Mennucci, 
 G. A. Petersson, H. Nakatsuji, M. Caricato, X. Li, H. P. Hratchian, 
 A. F. Izmaylov, J. Bloino, G. Zheng, J. L. Sonnenberg, M. Hada, 
 M. Ehara, K. Toyota, R. Fukuda, J. Hasegawa, M. Ishida, T. Nakajima, 
 Y. Honda, O. Kitao, H. Nakai, T. Vreven, J. A. Montgomery, Jr., 
 J. E. Peralta, F. Ogliaro, M. Bearpark, J. J. Heyd, E. Brothers, 
 K. N. Kudin, V. N. Staroverov, T. Keith, R. Kobayashi, J. Normand, 
 K. Raghavachari, A. Rendell, J. C. Burant, S. S. Iyengar, J. Tomasi, 
 M. Cossi, N. Rega, J. M. Millam, M. Klene, J. E. Knox, J. B. Cross, 
 V. Bakken, C. Adamo, J. Jaramillo, R. Gomperts, R. E. Stratmann, 
 O. Yazyev, A. J. Austin, R. Cammi, C. Pomelli, J. W. Ochterski, 
 R. L. Martin, K. Morokuma, V. G. Zakrzewski, G. A. Voth, 
 P. Salvador, J. J. Dannenberg, S. Dapprich, A. D. Daniels, 
 O. Farkas, J. B. Foresman, J. V. Ortiz, J. Cioslowski, 
 and D. J. Fox, Gaussian, Inc., Wallingford CT, 2013.
 
 ******************************************
 Gaussian 09:  ES64L-G09RevE.01 30-Nov-2015
                20-Feb-2019 
 ******************************************
 %chk=Prop.M062X_6-31pGd_opt.chk
 %mem=196608000
 %nproc=4
 Will use up to    4 processors via shared memory.
 ----------------------------------------------------------------------
 # M062X/Gen 6D SCF=Tight INT(grid=ultrafine) OPT IOP(2/17=4) maxdisk=6
 71088640
 ----------------------------------------------------------------------
 1/14=-1,18=20,19=15,26=4,38=1/1,3;
 2/9=110,12=2,17=4,18=5,40=1/2;
 3/5=7,8=2,11=2,16=1,25=1,30=1,71=1,74=-55,75=-5/1,2,3;
 4//1;
 5/5=2,32=2,38=5/2;
 6/7=2,8=2,9=2,10=2,28=1/1;
 7//1,2,3,16;
 1/14=-1,18=20,19=15,26=4/3(2);
 2/9=110,17=4/2;
 99//99;
 2/9=110,17=4/2;
 3/5=7,6=1,8=2,11=2,16=1,25=1,30=1,71=1,74=-55,75=-5,82=7/1,2,3;
 4/5=5,16=3,69=1/1;
 5/5=2,32=2,38=5/2;
 7//1,2,3,16;
 1/14=-1,18=20,19=15,26=4/3(-5);
 2/9=110,17=4/2;
 6/7=2,8=2,9=2,10=2,19=2,28=1/1;
 99/9=1/99;
 ----------------------
 Prop.M062X_6-31pGd_opt
 ----------------------
 Symbolic Z-matrix:
 Charge = -1 Multiplicity = 1
 C                    -5.35418  -2.18054  -0.00108 
 C                    -3.9831   -1.50776  -0.00631 
 C                    -2.81199  -2.46554  -0.00379 
 O                    -2.95761  -3.81098   0.00257 
 O                    -1.68328  -2.00141  -0.00768 
 H                    -6.14717  -1.40316  -0.00338 
 H                    -5.47772  -2.80286   0.91076 
 H                    -5.48059  -2.81116  -0.90681 
 H                    -3.90845  -0.85807   0.89223 
 H                    -3.91129  -0.86629  -0.91098 
 

 GradGradGradGradGradGradGradGradGradGradGradGradGradGradGradGradGradGrad
 Berny optimization.
 Initialization pass.
                           ----------------------------
                           !    Initial Parameters    !
                           ! (Angstroms and Degrees)  !
 --------------------------                            --------------------------
 ! Name  Definition              Value          Derivative Info.                !
 --------------------------------------------------------------------------------
 ! R1    R(1,2)                  1.5273         estimate D2E/DX2                !
 ! R2    R(1,6)                  1.1105         estimate D2E/DX2                !
 ! R3    R(1,7)                  1.1109         estimate D2E/DX2                !
 ! R4    R(1,8)                  1.1109         estimate D2E/DX2                !
 ! R5    R(2,3)                  1.5129         estimate D2E/DX2                !
 ! R6    R(2,9)                  1.1113         estimate D2E/DX2                !
 ! R7    R(2,10)                 1.1113         estimate D2E/DX2                !
 ! R8    R(3,4)                  1.3533         estimate D2E/DX2                !
 ! R9    R(3,5)                  1.2204         estimate D2E/DX2                !
 ! A1    A(2,1,6)              109.432          estimate D2E/DX2                !
 ! A2    A(2,1,7)              110.4527         estimate D2E/DX2                !
 ! A3    A(2,1,8)              110.4531         estimate D2E/DX2                !
 ! A4    A(6,1,7)              108.3282         estimate D2E/DX2                !
 ! A5    A(6,1,8)              108.3279         estimate D2E/DX2                !
 ! A6    A(7,1,8)              109.7908         estimate D2E/DX2                !
 ! A7    A(1,2,3)              114.5849         estimate D2E/DX2                !
 ! A8    A(1,2,9)              108.3646         estimate D2E/DX2                !
 ! A9    A(1,2,10)             108.3646         estimate D2E/DX2                !
 ! A10   A(3,2,9)              108.467          estimate D2E/DX2                !
 ! A11   A(3,2,10)             108.4667         estimate D2E/DX2                !
 ! A12   A(9,2,10)             108.445          estimate D2E/DX2                !
 ! A13   A(2,3,4)              123.1005         estimate D2E/DX2                !
 ! A14   A(2,3,5)              118.3691         estimate D2E/DX2                !
 ! A15   A(4,3,5)              118.5303         estimate D2E/DX2                !
 ! D1    D(6,1,2,3)           -179.9997         estimate D2E/DX2                !
 ! D2    D(6,1,2,9)             58.7411         estimate D2E/DX2                !
 ! D3    D(6,1,2,10)           -58.7407         estimate D2E/DX2                !
 ! D4    D(7,1,2,3)             60.8267         estimate D2E/DX2                !
 ! D5    D(7,1,2,9)            -60.4326         estimate D2E/DX2                !
 ! D6    D(7,1,2,10)          -177.9144         estimate D2E/DX2                !
 ! D7    D(8,1,2,3)            -60.8261         estimate D2E/DX2                !
 ! D8    D(8,1,2,9)            177.9146         estimate D2E/DX2                !
 ! D9    D(8,1,2,10)            60.4328         estimate D2E/DX2                !
 ! D10   D(1,2,3,4)              0.0002         estimate D2E/DX2                !
 ! D11   D(1,2,3,5)           -179.9997         estimate D2E/DX2                !
 ! D12   D(9,2,3,4)            121.2032         estimate D2E/DX2                !
 ! D13   D(9,2,3,5)            -58.7966         estimate D2E/DX2                !
 ! D14   D(10,2,3,4)          -121.2027         estimate D2E/DX2                !
 ! D15   D(10,2,3,5)            58.7975         estimate D2E/DX2                !
 --------------------------------------------------------------------------------
 Trust Radius=3.00D-01 FncErr=1.00D-07 GrdErr=1.00D-06
 Number of steps in this run=     49 maximum allowed number of steps=    100.
 GradGradGradGradGradGradGradGradGradGradGradGradGradGradGradGradGradGrad

                          Input orientation:                          
 ---------------------------------------------------------------------
 Center     Atomic      Atomic             Coordinates (Angstroms)
 Number     Number       Type             X           Y           Z
 ---------------------------------------------------------------------
      1          6           0       -5.354180   -2.180540   -0.001080
      2          6           0       -3.983100   -1.507760   -0.006310
      3          6           0       -2.811990   -2.465540   -0.003790
      4          8           0       -2.957610   -3.810980    0.002570
      5          8           0       -1.683280   -2.001410   -0.007680
      6          1           0       -6.147170   -1.403160   -0.003380
      7          1           0       -5.477720   -2.802860    0.910760
      8          1           0       -5.480590   -2.811160   -0.906810
      9          1           0       -3.908450   -0.858070    0.892230
     10          1           0       -3.911290   -0.866290   -0.910980
 ---------------------------------------------------------------------
                    Distance matrix (angstroms):
                    1          2          3          4          5
     1  C    0.000000
     2  C    1.527259   0.000000
     3  C    2.558117   1.512894   0.000000
     4  O    2.898602   2.521216   1.353312   0.000000
     5  O    3.675274   2.352204   1.220417   2.213270   0.000000
     6  H    1.110477   2.166598   3.500297   3.996364   4.503802
     7  H    1.110854   2.179952   2.838363   2.862179   3.985427
     8  H    1.110859   2.179961   2.838366   2.862174   3.985435
     9  H    2.153385   1.111325   2.142204   3.227270   2.658655
    10  H    2.153393   1.111336   2.142208   3.227271   2.658661
                    6          7          8          9         10
     6  H    0.000000
     7  H    1.800826   0.000000
     8  H    1.800827   1.817591   0.000000
     9  H    2.472065   2.499032   3.085892   0.000000
    10  H    2.472069   3.085894   2.499048   1.803231   0.000000
 Stoichiometry    C3H5O2(1-)
 Framework group  CS[SG(C3HO2),X(H4)]
 Deg. of freedom    15
 Full point group                 CS      NOp   2
 Largest Abelian subgroup         CS      NOp   2
 Largest concise Abelian subgroup CS      NOp   2
                         Standard orientation:                         
 ---------------------------------------------------------------------
 Center     Atomic      Atomic             Coordinates (Angstroms)
 Number     Number       Type             X           Y           Z
 ---------------------------------------------------------------------
      1          6           0        0.115047   -1.899281    0.000000
      2          6           0       -0.763382   -0.649928    0.000000
      3          6           0       -0.000000    0.656248   -0.000000
      4          8           0        1.351700    0.722280   -0.000000
      5          8           0       -0.634523    1.698744    0.000000
      6          1           0       -0.529125   -2.803825    0.000000
      7          1           0        0.753341   -1.925004    0.908802
      8          1           0        0.753341   -1.925004   -0.908802
      9          1           0       -1.412491   -0.678297    0.901606
     10          1           0       -1.412491   -0.678297   -0.901606
 ---------------------------------------------------------------------
 Rotational constants (GHZ):      9.8194255      3.9843908      2.9433764
 General basis read from cards:  (6D, 7F)
 There are    76 symmetry adapted cartesian basis functions of A'  symmetry.
 There are    29 symmetry adapted cartesian basis functions of A"  symmetry.
 There are    76 symmetry adapted basis functions of A'  symmetry.
 There are    29 symmetry adapted basis functions of A"  symmetry.
   105 basis functions,   180 primitive gaussians,   105 cartesian basis functions
    20 alpha electrons       20 beta electrons
       nuclear repulsion energy       166.9267513168 Hartrees.
 NAtoms=   10 NActive=   10 NUniq=    8 SFac= 1.56D+00 NAtFMM=   60 NAOKFM=F Big=F
 Integral buffers will be    131072 words long.
 Raffenetti 2 integral format.
 Two-electron integral symmetry is turned on.
 One-electron integrals computed using PRISM.
 NBasis=   105 RedAO= T EigKep=  1.61D-04  NBF=    76    29
 NBsUse=   105 1.00D-06 EigRej= -1.00D+00 NBFU=    76    29
 ExpMin= 4.38D-02 ExpMax= 5.48D+03 ExpMxC= 8.25D+02 IAcc=3 IRadAn=         5 AccDes= 0.00D+00
 Harris functional with IExCor= 1009 and IRadAn=       5 diagonalized for initial guess.
 HarFok:  IExCor= 1009 AccDes= 0.00D+00 IRadAn=         5 IDoV= 1 UseB2=F ITyADJ=14
 ICtDFT=  3500011 ScaDFX=  1.000000  1.000000  1.000000  1.000000
 FoFCou: FMM=F IPFlag=           0 FMFlag=      100000 FMFlg1=           0
         NFxFlg=           0 DoJE=T BraDBF=F KetDBF=T FulRan=T
         wScrn=  0.000000 ICntrl=     500 IOpCl=  0 I1Cent=   200000004 NGrid=           0
         NMat0=    1 NMatS0=      1 NMatT0=    0 NMatD0=    1 NMtDS0=    0 NMtDT0=    0
 Petite list used in FoFCou.
 Initial guess orbital symmetries:
       Occupied  (A') (A') (A') (A') (A') (A') (A') (A') (A') (A')
                 (A") (A') (A') (A') (A") (A') (A") (A') (A") (A')
       Virtual   (A") (A') (A') (A") (A') (A') (A') (A") (A') (A')
                 (A") (A') (A") (A') (A') (A') (A') (A") (A') (A")
                 (A') (A') (A') (A') (A") (A') (A') (A') (A') (A')
                 (A') (A") (A') (A") (A') (A') (A") (A') (A') (A")
                 (A') (A") (A') (A') (A') (A') (A") (A") (A') (A')
                 (A') (A') (A") (A") (A') (A') (A') (A") (A') (A')
                 (A") (A') (A") (A') (A') (A') (A") (A') (A') (A")
                 (A") (A') (A') (A") (A') (A") (A') (A') (A') (A')
                 (A') (A') (A') (A') (A')
 The electronic state of the initial guess is 1-A'.
 Keep R1 ints in memory in symmetry-blocked form, NReq=23632887.
 Requested convergence on RMS density matrix=1.00D-08 within 128 cycles.
 Requested convergence on MAX density matrix=1.00D-06.
 Requested convergence on             energy=1.00D-06.
 No special actions if energy rises.
 SCF Done:  E(RM062X) =  -267.710991823     A.U. after   15 cycles
            NFock= 15  Conv=0.16D-08     -V/T= 2.0091

 **********************************************************************

            Population analysis using the SCF density.

 **********************************************************************

 Orbital symmetries:
       Occupied  (A') (A') (A') (A') (A') (A') (A') (A') (A') (A')
                 (A") (A') (A') (A") (A') (A') (A") (A') (A") (A')
       Virtual   (A') (A') (A") (A') (A') (A') (A") (A") (A') (A')
                 (A') (A") (A') (A") (A') (A') (A") (A') (A') (A')
                 (A") (A') (A') (A") (A') (A') (A') (A') (A') (A')
                 (A") (A') (A') (A") (A') (A') (A") (A') (A') (A")
                 (A') (A") (A') (A') (A') (A') (A") (A') (A") (A')
                 (A') (A') (A") (A") (A') (A') (A') (A') (A") (A')
                 (A') (A") (A") (A') (A') (A') (A") (A') (A') (A")
                 (A") (A') (A') (A") (A') (A") (A') (A') (A') (A')
                 (A') (A') (A') (A') (A')
 The electronic state is 1-A'.
 Alpha  occ. eigenvalues --  -19.38853 -19.37036 -10.43948 -10.39640 -10.39054
 Alpha  occ. eigenvalues --   -0.94590  -0.81120  -0.70682  -0.56406  -0.40360
 Alpha  occ. eigenvalues --   -0.37150  -0.33256  -0.30111  -0.27994  -0.27358
 Alpha  occ. eigenvalues --   -0.24191  -0.22660  -0.11582  -0.09642  -0.08659
 Alpha virt. eigenvalues --    0.14419   0.16126   0.18456   0.19674   0.21433
 Alpha virt. eigenvalues --    0.21899   0.22112   0.22721   0.23625   0.25718
 Alpha virt. eigenvalues --    0.28053   0.28186   0.29934   0.37712   0.37989
 Alpha virt. eigenvalues --    0.42051   0.42655   0.43082   0.44586   0.46014
 Alpha virt. eigenvalues --    0.46131   0.47948   0.49649   0.49706   0.50431
 Alpha virt. eigenvalues --    0.54650   0.56236   0.56715   0.69399   0.72348
 Alpha virt. eigenvalues --    0.84601   0.85244   0.89256   0.91090   0.94735
 Alpha virt. eigenvalues --    0.98199   1.02854   1.07373   1.10384   1.13709
 Alpha virt. eigenvalues --    1.18968   1.20808   1.28991   1.31201   1.32159
 Alpha virt. eigenvalues --    1.36210   1.49706   1.55923   1.56756   1.60371
 Alpha virt. eigenvalues --    1.61413   1.62282   1.63589   1.75095   1.77310
 Alpha virt. eigenvalues --    1.79701   1.86232   1.99922   2.02393   2.06756
 Alpha virt. eigenvalues --    2.11075   2.13334   2.15396   2.16257   2.21182
 Alpha virt. eigenvalues --    2.26068   2.27400   2.33981   2.41485   2.48769
 Alpha virt. eigenvalues --    2.49611   2.50834   2.71332   2.75469   2.78059
 Alpha virt. eigenvalues --    2.91701   3.02766   3.21185   3.35883   3.39368
 Alpha virt. eigenvalues --    4.35182   4.41063   4.57961   4.60566   4.81852
          Condensed to atoms (all electrons):
               1          2          3          4          5          6
     1  C    5.943871  -0.554961   0.065699   0.097247   0.076683   0.391811
     2  C   -0.554961   7.538520  -0.548728  -0.285986  -0.401676  -0.082385
     3  C    0.065699  -0.548728   5.077184   0.463071   0.551092   0.017821
     4  O    0.097247  -0.285986   0.463071   8.644939  -0.205425   0.002196
     5  O    0.076683  -0.401676   0.551092  -0.205425   8.573598  -0.000185
     6  H    0.391811  -0.082385   0.017821   0.002196  -0.000185   0.596317
     7  H    0.398689  -0.036503  -0.005521  -0.006214  -0.000285  -0.034045
     8  H    0.398689  -0.036503  -0.005521  -0.006214  -0.000285  -0.034045
     9  H   -0.063220   0.391240  -0.012409   0.001063  -0.004125  -0.002565
    10  H   -0.063220   0.391240  -0.012409   0.001063  -0.004125  -0.002565
               7          8          9         10
     1  C    0.398689   0.398689  -0.063220  -0.063220
     2  C   -0.036503  -0.036503   0.391240   0.391240
     3  C   -0.005521  -0.005521  -0.012409  -0.012409
     4  O   -0.006214  -0.006214   0.001063   0.001063
     5  O   -0.000285  -0.000285  -0.004125  -0.004125
     6  H   -0.034045  -0.034045  -0.002565  -0.002565
     7  H    0.495097  -0.020132  -0.004321   0.003883
     8  H   -0.020132   0.495097   0.003883  -0.004321
     9  H   -0.004321   0.003883   0.528925  -0.028710
    10  H    0.003883  -0.004321  -0.028710   0.528925
 Mulliken charges:
               1
     1  C   -0.691289
     2  C   -0.374259
     3  C    0.409721
     4  O   -0.705738
     5  O   -0.585266
     6  H    0.147647
     7  H    0.209351
     8  H    0.209351
     9  H    0.190240
    10  H    0.190240
 Sum of Mulliken charges =  -1.00000
 Mulliken charges with hydrogens summed into heavy atoms:
               1
     1  C   -0.124939
     2  C    0.006222
     3  C    0.409721
     4  O   -0.705738
     5  O   -0.585266
 Electronic spatial extent (au):  <R**2>=            448.8799
 Charge=             -1.0000 electrons
 Dipole moment (field-independent basis, Debye):
    X=             -2.7547    Y=             -5.8000    Z=             -0.0000  Tot=              6.4209
 Quadrupole moment (field-independent basis, Debye-Ang):
   XX=            -42.9071   YY=            -46.6939   ZZ=            -32.3444
   XY=              0.1140   XZ=              0.0000   YZ=              0.0000
 Traceless Quadrupole moment (field-independent basis, Debye-Ang):
   XX=             -2.2586   YY=             -6.0454   ZZ=              8.3041
   XY=              0.1140   XZ=              0.0000   YZ=              0.0000
 Octapole moment (field-independent basis, Debye-Ang**2):
  XXX=             -7.8236  YYY=             -5.5021  ZZZ=             -0.0000  XYY=              3.6619
  XXY=             -6.1509  XXZ=             -0.0000  XZZ=             -0.5838  YZZ=              1.1864
  YYZ=             -0.0000  XYZ=              0.0000
 Hexadecapole moment (field-independent basis, Debye-Ang**3):
 XXXX=           -196.4053 YYYY=           -458.4536 ZZZZ=            -51.2436 XXXY=             -8.6009
 XXXZ=              0.0000 YYYX=              4.0892 YYYZ=              0.0000 ZZZX=              0.0000
 ZZZY=              0.0000 XXYY=           -107.1029 XXZZ=            -37.9000 YYZZ=            -76.1899
 XXYZ=              0.0000 YYXZ=             -0.0000 ZZXY=             -2.4438
 N-N= 1.669267513168D+02 E-N=-9.690121239293D+02  KE= 2.653077693032D+02
 Symmetry A'   KE= 2.537711735118D+02
 Symmetry A"   KE= 1.153659579138D+01
 Calling FoFJK, ICntrl=      2127 FMM=F ISym2X=1 I1Cent= 0 IOpClX= 0 NMat=1 NMatS=1 NMatT=0.
 ***** Axes restored to original set *****
 -------------------------------------------------------------------
 Center     Atomic                   Forces (Hartrees/Bohr)
 Number     Number              X              Y              Z
 -------------------------------------------------------------------
      1        6          -0.007599193   -0.001032549    0.000016678
      2        6          -0.018692926    0.003470403    0.000013636
      3        6           0.009702306   -0.115633801    0.000511646
      4        8          -0.025702503    0.077404664   -0.000312232
      5        8           0.030177209    0.040713546   -0.000233071
      6        1           0.002739531   -0.005729491    0.000021793
      7        1           0.001123142    0.002957093   -0.011762272
      8        1           0.001160155    0.003064150    0.011731237
      9        1           0.003531437   -0.002649534   -0.009326054
     10        1           0.003560843   -0.002564481    0.009338640
 -------------------------------------------------------------------
 Cartesian Forces:  Max     0.115633801 RMS     0.028081040

 GradGradGradGradGradGradGradGradGradGradGradGradGradGradGradGradGradGrad
 Berny optimization.
 FormGI is forming the generalized inverse of G from B-inverse, IUseBI=4.
 Internal  Forces:  Max     0.074190394 RMS     0.017545400
 Search for a local minimum.
 Step number   1 out of a maximum of   49
 All quantities printed in internal units (Hartrees-Bohrs-Radians)
 Mixed Optimization -- RFO/linear search
 Second derivative matrix not updated -- first step.
 ITU=  0
     Eigenvalues ---    0.00405   0.00595   0.00595   0.03989   0.05459
     Eigenvalues ---    0.05617   0.05804   0.09592   0.13000   0.16000
     Eigenvalues ---    0.16000   0.16000   0.22061   0.25000   0.25000
     Eigenvalues ---    0.29678   0.31061   0.32460   0.32460   0.32510
     Eigenvalues ---    0.32510   0.32550   0.54323   0.95199
 RFO step:  Lambda=-2.83428948D-02 EMin= 4.05360551D-03
 Linear search not attempted -- first point.
 Iteration  1 RMS(Cart)=  0.05886284 RMS(Int)=  0.00399969
 Iteration  2 RMS(Cart)=  0.00394365 RMS(Int)=  0.00014959
 Iteration  3 RMS(Cart)=  0.00001860 RMS(Int)=  0.00014909
 Iteration  4 RMS(Cart)=  0.00000000 RMS(Int)=  0.00014909
 ClnCor:  largest displacement from symmetrization is 7.05D-09 for atom     8.
 Variable       Old X    -DE/DX   Delta X   Delta X   Delta X     New X
                                 (Linear)    (Quad)   (Total)
    R1        2.88610   0.00264   0.00000   0.00812   0.00812   2.89422
    R2        2.09850  -0.00597   0.00000  -0.01686  -0.01686   2.08163
    R3        2.09921  -0.01144   0.00000  -0.03236  -0.03236   2.06686
    R4        2.09921  -0.01144   0.00000  -0.03236  -0.03236   2.06686
    R5        2.85895   0.00940   0.00000   0.02774   0.02774   2.88669
    R6        2.10010  -0.00885   0.00000  -0.02508  -0.02508   2.07502
    R7        2.10010  -0.00885   0.00000  -0.02508  -0.02508   2.07502
    R8        2.55739  -0.07419   0.00000  -0.12980  -0.12980   2.42759
    R9        2.30625   0.04339   0.00000   0.04426   0.04426   2.35052
    A1        1.90995   0.00358   0.00000   0.02634   0.02612   1.93607
    A2        1.92776   0.00112   0.00000   0.00221   0.00207   1.92983
    A3        1.92776   0.00112   0.00000   0.00221   0.00207   1.92983
    A4        1.89068  -0.00097   0.00000   0.00209   0.00188   1.89255
    A5        1.89068  -0.00097   0.00000   0.00209   0.00188   1.89255
    A6        1.91623  -0.00392   0.00000  -0.03468  -0.03473   1.88150
    A7        1.99988  -0.00037   0.00000   0.00274   0.00278   2.00266
    A8        1.89132   0.00350   0.00000   0.02718   0.02715   1.91847
    A9        1.89132   0.00350   0.00000   0.02718   0.02715   1.91847
   A10        1.89311  -0.00204   0.00000  -0.01612  -0.01630   1.87681
   A11        1.89311  -0.00204   0.00000  -0.01612  -0.01630   1.87681
   A12        1.89271  -0.00273   0.00000  -0.02695  -0.02758   1.86513
   A13        2.14851  -0.03764   0.00000  -0.13524  -0.13524   2.01327
   A14        2.06593  -0.01137   0.00000  -0.04083  -0.04083   2.02510
   A15        2.06874   0.04901   0.00000   0.17607   0.17607   2.24481
    D1       -3.14159  -0.00000   0.00000  -0.00000   0.00000  -3.14159
    D2        1.02522   0.00029   0.00000  -0.00113  -0.00108   1.02413
    D3       -1.02522  -0.00029   0.00000   0.00113   0.00108  -1.02413
    D4        1.06163  -0.00172   0.00000  -0.02036  -0.02040   1.04123
    D5       -1.05475  -0.00143   0.00000  -0.02148  -0.02148  -1.07623
    D6       -3.10518  -0.00201   0.00000  -0.01923  -0.01931  -3.12449
    D7       -1.06163   0.00172   0.00000   0.02036   0.02040  -1.04123
    D8        3.10518   0.00201   0.00000   0.01923   0.01931   3.12449
    D9        1.05475   0.00143   0.00000   0.02148   0.02148   1.07623
   D10        0.00000  -0.00000   0.00000  -0.00000   0.00000   0.00000
   D11       -3.14159  -0.00000   0.00000   0.00000  -0.00000   3.14159
   D12        2.11540   0.00275   0.00000   0.02492   0.02470   2.14009
   D13       -1.02620   0.00275   0.00000   0.02492   0.02470  -1.00150
   D14       -2.11540  -0.00275   0.00000  -0.02492  -0.02470  -2.14009
   D15        1.02620  -0.00275   0.00000  -0.02492  -0.02470   1.00150
         Item               Value     Threshold  Converged?
 Maximum Force            0.074190     0.000450     NO 
 RMS     Force            0.017545     0.000300     NO 
 Maximum Displacement     0.263460     0.001800     NO 
 RMS     Displacement     0.057596     0.001200     NO 
 Predicted change in Energy=-1.535718D-02
 GradGradGradGradGradGradGradGradGradGradGradGradGradGradGradGradGradGrad

                          Input orientation:                          
 ---------------------------------------------------------------------
 Center     Atomic      Atomic             Coordinates (Angstroms)
 Number     Number       Type             X           Y           Z
 ---------------------------------------------------------------------
      1          6           0       -5.350248   -2.190663   -0.001043
      2          6           0       -3.974797   -1.517040   -0.006279
      3          6           0       -2.790380   -2.481728   -0.003749
      4          8           0       -3.097027   -3.729201    0.002418
      5          8           0       -1.661325   -1.959848   -0.007906
      6          1           0       -6.156162   -1.439721   -0.003195
      7          1           0       -5.466469   -2.820214    0.885755
      8          1           0       -5.469254   -2.828268   -0.881695
      9          1           0       -3.873467   -0.866515    0.872509
     10          1           0       -3.876246   -0.874552   -0.891274
 ---------------------------------------------------------------------
                    Distance matrix (angstroms):
                    1          2          3          4          5
     1  C    0.000000
     2  C    1.531555   0.000000
     3  C    2.576363   1.527571   0.000000
     4  O    2.728390   2.379961   1.284625   0.000000
     5  O    3.696143   2.355468   1.243841   2.278587   0.000000
     6  H    1.101552   2.182737   3.523389   3.821002   4.524833
     7  H    1.093733   2.172344   2.840290   2.687154   4.002247
     8  H    1.093733   2.172344   2.840290   2.687154   4.002247
     9  H    2.167335   1.098052   2.133030   3.091098   2.619938
    10  H    2.167335   1.098052   2.133030   3.091098   2.619938
                    6          7          8          9         10
     6  H    0.000000
     7  H    1.780918   0.000000
     8  H    1.780918   1.767471   0.000000
     9  H    2.511198   2.520868   3.077701   0.000000
    10  H    2.511198   3.077701   2.520868   1.763803   0.000000
 Stoichiometry    C3H5O2(1-)
 Framework group  CS[SG(C3HO2),X(H4)]
 Deg. of freedom    15
 Full point group                 CS      NOp   2
 Largest Abelian subgroup         CS      NOp   2
 Largest concise Abelian subgroup CS      NOp   2
                         Standard orientation:                         
 ---------------------------------------------------------------------
 Center     Atomic      Atomic             Coordinates (Angstroms)
 Number     Number       Type             X           Y           Z
 ---------------------------------------------------------------------
      1          6           0        0.212371   -1.867662   -0.000000
      2          6           0       -0.715915   -0.649488    0.000000
      3          6           0       -0.000000    0.699934    0.000000
      4          8           0        1.283307    0.641762   -0.000000
      5          8           0       -0.731515    1.705929    0.000000
      6          1           0       -0.367494   -2.804237   -0.000000
      7          1           0        0.856733   -1.859806    0.883735
      8          1           0        0.856733   -1.859806   -0.883735
      9          1           0       -1.369520   -0.677194    0.881902
     10          1           0       -1.369520   -0.677194   -0.881902
 ---------------------------------------------------------------------
 Rotational constants (GHZ):     10.1990740      4.0554608      3.0102756
 Basis read from rwf:  (6D, 7F)
 There are    76 symmetry adapted cartesian basis functions of A'  symmetry.
 There are    29 symmetry adapted cartesian basis functions of A"  symmetry.
 There are    76 symmetry adapted basis functions of A'  symmetry.
 There are    29 symmetry adapted basis functions of A"  symmetry.
   105 basis functions,   180 primitive gaussians,   105 cartesian basis functions
    20 alpha electrons       20 beta electrons
       nuclear repulsion energy       168.5516615580 Hartrees.
 NAtoms=   10 NActive=   10 NUniq=    8 SFac= 1.56D+00 NAtFMM=   60 NAOKFM=F Big=F
 Integral buffers will be    131072 words long.
 Raffenetti 2 integral format.
 Two-electron integral symmetry is turned on.
 One-electron integrals computed using PRISM.
 NBasis=   105 RedAO= T EigKep=  1.72D-04  NBF=    76    29
 NBsUse=   105 1.00D-06 EigRej= -1.00D+00 NBFU=    76    29
 Initial guess from the checkpoint file:  "Prop.M062X_6-31pGd_opt.chk"
 B after Tr=     0.000001   -0.000000    0.000000
         Rot=    0.999867    0.000000   -0.000000   -0.016308 Ang=  -1.87 deg.
 Initial guess orbital symmetries:
       Occupied  (A') (A') (A') (A') (A') (A') (A') (A') (A') (A')
                 (A") (A') (A') (A") (A') (A') (A") (A') (A") (A')
       Virtual   (A') (A') (A') (A') (A') (A') (A') (A') (A') (A')
                 (A') (A') (A') (A') (A') (A') (A') (A') (A') (A')
                 (A') (A') (A') (A') (A') (A') (A') (A') (A') (A')
                 (A') (A') (A') (A') (A') (A') (A') (A') (A') (A')
                 (A') (A') (A') (A') (A') (A') (A') (A') (A') (A')
                 (A') (A') (A') (A') (A') (A') (A') (A') (A') (A')
                 (A") (A") (A") (A") (A") (A") (A") (A") (A") (A")
                 (A") (A") (A") (A") (A") (A") (A") (A") (A") (A")
                 (A") (A") (A") (A") (A")
 ExpMin= 4.38D-02 ExpMax= 5.48D+03 ExpMxC= 8.25D+02 IAcc=2 IRadAn=         4 AccDes= 0.00D+00
 Harris functional with IExCor= 1009 and IRadAn=       4 diagonalized for initial guess.
 HarFok:  IExCor= 1009 AccDes= 0.00D+00 IRadAn=         4 IDoV= 1 UseB2=F ITyADJ=14
 ICtDFT=  3500011 ScaDFX=  1.000000  1.000000  1.000000  1.000000
 FoFCou: FMM=F IPFlag=           0 FMFlag=      100000 FMFlg1=           0
         NFxFlg=           0 DoJE=T BraDBF=F KetDBF=T FulRan=T
         wScrn=  0.000000 ICntrl=     500 IOpCl=  0 I1Cent=   200000004 NGrid=           0
         NMat0=    1 NMatS0=      1 NMatT0=    0 NMatD0=    1 NMtDS0=    0 NMtDT0=    0
 Petite list used in FoFCou.
 Keep R1 ints in memory in symmetry-blocked form, NReq=23632887.
 Requested convergence on RMS density matrix=1.00D-08 within 128 cycles.
 Requested convergence on MAX density matrix=1.00D-06.
 Requested convergence on             energy=1.00D-06.
 No special actions if energy rises.
 SCF Done:  E(RM062X) =  -267.727562693     A.U. after   13 cycles
            NFock= 13  Conv=0.48D-08     -V/T= 2.0085
 Calling FoFJK, ICntrl=      2127 FMM=F ISym2X=1 I1Cent= 0 IOpClX= 0 NMat=1 NMatS=1 NMatT=0.
 ***** Axes restored to original set *****
 -------------------------------------------------------------------
 Center     Atomic                   Forces (Hartrees/Bohr)
 Number     Number              X              Y              Z
 -------------------------------------------------------------------
      1        6           0.000320250    0.005151477   -0.000023979
      2        6          -0.013329506    0.004980656   -0.000001696
      3        6          -0.008470683   -0.042468834    0.000206872
      4        8           0.009760275    0.027375907   -0.000140127
      5        8           0.009372033    0.004331063   -0.000034502
      6        1           0.000186958   -0.000465238    0.000001825
      7        1           0.000489460   -0.001240383   -0.001020041
      8        1           0.000492689   -0.001231042    0.001029756
      9        1           0.000587734    0.001778779   -0.000978607
     10        1           0.000590789    0.001787615    0.000960498
 -------------------------------------------------------------------
 Cartesian Forces:  Max     0.042468834 RMS     0.010117082

 GradGradGradGradGradGradGradGradGradGradGradGradGradGradGradGradGradGrad
 Berny optimization.
 Using GEDIIS/GDIIS optimizer.
 FormGI is forming the generalized inverse of G from B-inverse, IUseBI=4.
 Internal  Forces:  Max     0.028913741 RMS     0.005597765
 Search for a local minimum.
 Step number   2 out of a maximum of   49
 All quantities printed in internal units (Hartrees-Bohrs-Radians)
 Mixed Optimization -- RFO/linear search
 Update second derivatives using D2CorX and points    1    2
 DE= -1.66D-02 DEPred=-1.54D-02 R= 1.08D+00
 TightC=F SS=  1.41D+00  RLast= 2.90D-01 DXNew= 5.0454D-01 8.6874D-01
 Trust test= 1.08D+00 RLast= 2.90D-01 DXMaxT set to 5.05D-01
 ITU=  1  0
 Use linear search instead of GDIIS.
     Eigenvalues ---    0.00405   0.00595   0.00595   0.03901   0.05294
     Eigenvalues ---    0.05570   0.05629   0.09768   0.13058   0.16000
     Eigenvalues ---    0.16000   0.16003   0.21984   0.24545   0.26702
     Eigenvalues ---    0.29710   0.31442   0.32460   0.32478   0.32510
     Eigenvalues ---    0.32545   0.35949   0.44483   0.93468
 RFO step:  Lambda=-2.85240444D-03 EMin= 4.05360551D-03
 Quartic linear search produced a step of  0.14411.
 Iteration  1 RMS(Cart)=  0.01844590 RMS(Int)=  0.00013926
 Iteration  2 RMS(Cart)=  0.00018963 RMS(Int)=  0.00004362
 Iteration  3 RMS(Cart)=  0.00000003 RMS(Int)=  0.00004362
 ClnCor:  largest displacement from symmetrization is 6.80D-09 for atom    10.
 Variable       Old X    -DE/DX   Delta X   Delta X   Delta X     New X
                                 (Linear)    (Quad)   (Total)
    R1        2.89422  -0.00231   0.00117  -0.00938  -0.00821   2.88601
    R2        2.08163  -0.00045  -0.00243  -0.00047  -0.00290   2.07873
    R3        2.06686  -0.00017  -0.00466   0.00154  -0.00312   2.06374
    R4        2.06686  -0.00017  -0.00466   0.00154  -0.00312   2.06374
    R5        2.88669   0.01506   0.00400   0.05310   0.05710   2.94379
    R6        2.07502   0.00032  -0.00361   0.00278  -0.00083   2.07418
    R7        2.07502   0.00032  -0.00361   0.00278  -0.00083   2.07418
    R8        2.42759  -0.02891  -0.01871  -0.05348  -0.07219   2.35540
    R9        2.35052   0.01032   0.00638   0.01027   0.01665   2.36717
    A1        1.93607   0.00070   0.00376   0.00690   0.01061   1.94667
    A2        1.92983  -0.00007   0.00030  -0.00294  -0.00271   1.92712
    A3        1.92983  -0.00007   0.00030  -0.00294  -0.00271   1.92712
    A4        1.89255   0.00024   0.00027   0.00583   0.00605   1.89860
    A5        1.89255   0.00024   0.00027   0.00583   0.00605   1.89860
    A6        1.88150  -0.00108  -0.00501  -0.01293  -0.01802   1.86348
    A7        2.00266   0.00111   0.00040   0.00997   0.01030   2.01296
    A8        1.91847   0.00034   0.00391   0.00201   0.00589   1.92435
    A9        1.91847   0.00034   0.00391   0.00201   0.00589   1.92435
   A10        1.87681  -0.00040  -0.00235   0.00185  -0.00061   1.87620
   A11        1.87681  -0.00040  -0.00235   0.00185  -0.00061   1.87620
   A12        1.86513  -0.00118  -0.00397  -0.01996  -0.02402   1.84111
   A13        2.01327   0.00476  -0.01949   0.03151   0.01202   2.02529
   A14        2.02510  -0.00238  -0.00588  -0.00774  -0.01362   2.01147
   A15        2.24481  -0.00238   0.02537  -0.02377   0.00160   2.24642
    D1       -3.14159   0.00000   0.00000  -0.00000  -0.00000   3.14159
    D2        1.02413  -0.00052  -0.00016  -0.01097  -0.01115   1.01298
    D3       -1.02413   0.00052   0.00016   0.01097   0.01115  -1.01298
    D4        1.04123  -0.00072  -0.00294  -0.00994  -0.01287   1.02837
    D5       -1.07623  -0.00123  -0.00310  -0.02091  -0.02401  -1.10024
    D6       -3.12449  -0.00020  -0.00278   0.00104  -0.00172  -3.12621
    D7       -1.04123   0.00072   0.00294   0.00994   0.01287  -1.02837
    D8        3.12449   0.00020   0.00278  -0.00104   0.00172   3.12621
    D9        1.07623   0.00123   0.00310   0.02091   0.02401   1.10024
   D10       -0.00000  -0.00000   0.00000   0.00000   0.00000   0.00000
   D11        3.14159  -0.00000  -0.00000   0.00000   0.00000   3.14159
   D12        2.14009   0.00088   0.00356   0.01066   0.01417   2.15427
   D13       -1.00150   0.00088   0.00356   0.01066   0.01417  -0.98733
   D14       -2.14009  -0.00088  -0.00356  -0.01066  -0.01417  -2.15427
   D15        1.00150  -0.00088  -0.00356  -0.01066  -0.01417   0.98733
         Item               Value     Threshold  Converged?
 Maximum Force            0.028914     0.000450     NO 
 RMS     Force            0.005598     0.000300     NO 
 Maximum Displacement     0.071082     0.001800     NO 
 RMS     Displacement     0.018323     0.001200     NO 
 Predicted change in Energy=-1.776805D-03
 GradGradGradGradGradGradGradGradGradGradGradGradGradGradGradGradGradGrad

                          Input orientation:                          
 ---------------------------------------------------------------------
 Center     Atomic      Atomic             Coordinates (Angstroms)
 Number     Number       Type             X           Y           Z
 ---------------------------------------------------------------------
      1          6           0       -5.363448   -2.181380   -0.001064
      2          6           0       -3.985378   -1.523150   -0.006235
      3          6           0       -2.777050   -2.506326   -0.003658
      4          8           0       -3.059412   -3.720333    0.002319
      5          8           0       -1.647529   -1.964755   -0.007906
      6          1           0       -6.168838   -1.432130   -0.003210
      7          1           0       -5.478095   -2.818321    0.878599
      8          1           0       -5.480857   -2.826309   -0.874520
      9          1           0       -3.876007   -0.863542    0.864227
     10          1           0       -3.878760   -0.871504   -0.883012
 ---------------------------------------------------------------------
                    Distance matrix (angstroms):
                    1          2          3          4          5
     1  C    0.000000
     2  C    1.527210   0.000000
     3  C    2.606732   1.557787   0.000000
     4  O    2.770734   2.384344   1.246425   0.000000
     5  O    3.722234   2.379192   1.252651   2.252903   0.000000
     6  H    1.100015   2.185359   3.557826   3.860626   4.552576
     7  H    1.092083   2.165319   2.858560   2.726082   4.023394
     8  H    1.092083   2.165319   2.858560   2.726082   4.023394
     9  H    2.167465   1.097610   2.158628   3.093698   2.634274
    10  H    2.167465   1.097610   2.158628   3.093698   2.634274
                    6          7          8          9         10
     6  H    0.000000
     7  H    1.782200   0.000000
     8  H    1.782200   1.753140   0.000000
     9  H    2.516508   2.527460   3.074287   0.000000
    10  H    2.516508   3.074287   2.527460   1.747259   0.000000
 Stoichiometry    C3H5O2(1-)
 Framework group  CS[SG(C3HO2),X(H4)]
 Deg. of freedom    15
 Full point group                 CS      NOp   2
 Largest Abelian subgroup         CS      NOp   2
 Largest concise Abelian subgroup CS      NOp   2
                         Standard orientation:                         
 ---------------------------------------------------------------------
 Center     Atomic      Atomic             Coordinates (Angstroms)
 Number     Number       Type             X           Y           Z
 ---------------------------------------------------------------------
      1          6           0        0.261394   -1.883620   -0.000000
      2          6           0       -0.688222   -0.687542    0.000000
      3          6           0       -0.000000    0.709973    0.000000
      4          8           0        1.246419    0.706108   -0.000000
      5          8           0       -0.780350    1.689865    0.000000
      6          1           0       -0.288883   -2.836105   -0.000000
      7          1           0        0.912055   -1.853451    0.876570
      8          1           0        0.912055   -1.853451   -0.876570
      9          1           0       -1.351407   -0.728826    0.873630
     10          1           0       -1.351407   -0.728826   -0.873630
 ---------------------------------------------------------------------
 Rotational constants (GHZ):     10.3593955      3.9763626      2.9779668
 Basis read from rwf:  (6D, 7F)
 There are    76 symmetry adapted cartesian basis functions of A'  symmetry.
 There are    29 symmetry adapted cartesian basis functions of A"  symmetry.
 There are    76 symmetry adapted basis functions of A'  symmetry.
 There are    29 symmetry adapted basis functions of A"  symmetry.
   105 basis functions,   180 primitive gaussians,   105 cartesian basis functions
    20 alpha electrons       20 beta electrons
       nuclear repulsion energy       168.4477738793 Hartrees.
 NAtoms=   10 NActive=   10 NUniq=    8 SFac= 1.56D+00 NAtFMM=   60 NAOKFM=F Big=F
 Integral buffers will be    131072 words long.
 Raffenetti 2 integral format.
 Two-electron integral symmetry is turned on.
 One-electron integrals computed using PRISM.
 NBasis=   105 RedAO= T EigKep=  1.81D-04  NBF=    76    29
 NBsUse=   105 1.00D-06 EigRej= -1.00D+00 NBFU=    76    29
 Initial guess from the checkpoint file:  "Prop.M062X_6-31pGd_opt.chk"
 B after Tr=     0.000000    0.000000   -0.000000
         Rot=    0.999874    0.000000   -0.000000   -0.015866 Ang=  -1.82 deg.
 Initial guess orbital symmetries:
       Occupied  (A') (A') (A') (A') (A') (A') (A') (A') (A') (A')
                 (A") (A') (A') (A") (A') (A') (A") (A") (A') (A')
       Virtual   (A') (A') (A') (A') (A') (A') (A') (A') (A') (A')
                 (A') (A') (A') (A') (A') (A') (A') (A') (A') (A')
                 (A') (A') (A') (A') (A') (A') (A') (A') (A') (A')
                 (A') (A') (A') (A') (A') (A') (A') (A') (A') (A')
                 (A') (A') (A') (A') (A') (A') (A') (A') (A') (A')
                 (A') (A') (A') (A') (A') (A') (A') (A') (A') (A')
                 (A") (A") (A") (A") (A") (A") (A") (A") (A") (A")
                 (A") (A") (A") (A") (A") (A") (A") (A") (A") (A")
                 (A") (A") (A") (A") (A")
 ExpMin= 4.38D-02 ExpMax= 5.48D+03 ExpMxC= 8.25D+02 IAcc=2 IRadAn=         4 AccDes= 0.00D+00
 Harris functional with IExCor= 1009 and IRadAn=       4 diagonalized for initial guess.
 HarFok:  IExCor= 1009 AccDes= 0.00D+00 IRadAn=         4 IDoV= 1 UseB2=F ITyADJ=14
 ICtDFT=  3500011 ScaDFX=  1.000000  1.000000  1.000000  1.000000
 FoFCou: FMM=F IPFlag=           0 FMFlag=      100000 FMFlg1=           0
         NFxFlg=           0 DoJE=T BraDBF=F KetDBF=T FulRan=T
         wScrn=  0.000000 ICntrl=     500 IOpCl=  0 I1Cent=   200000004 NGrid=           0
         NMat0=    1 NMatS0=      1 NMatT0=    0 NMatD0=    1 NMtDS0=    0 NMtDT0=    0
 Petite list used in FoFCou.
 Keep R1 ints in memory in symmetry-blocked form, NReq=23632887.
 Requested convergence on RMS density matrix=1.00D-08 within 128 cycles.
 Requested convergence on MAX density matrix=1.00D-06.
 Requested convergence on             energy=1.00D-06.
 No special actions if energy rises.
 SCF Done:  E(RM062X) =  -267.729012662     A.U. after   12 cycles
            NFock= 12  Conv=0.66D-08     -V/T= 2.0083
 Calling FoFJK, ICntrl=      2127 FMM=F ISym2X=1 I1Cent= 0 IOpClX= 0 NMat=1 NMatS=1 NMatT=0.
 ***** Axes restored to original set *****
 -------------------------------------------------------------------
 Center     Atomic                   Forces (Hartrees/Bohr)
 Number     Number              X              Y              Z
 -------------------------------------------------------------------
      1        6           0.002011887    0.001757959   -0.000011181
      2        6          -0.002212975    0.003291658   -0.000011513
      3        6          -0.000514205    0.004616349   -0.000020226
      4        8          -0.002601357   -0.011504187    0.000056522
      5        8           0.002635850    0.003668762   -0.000020871
      6        1          -0.000018038   -0.000295819    0.000001376
      7        1          -0.000273736   -0.001152702    0.001156245
      8        1          -0.000277361   -0.001163188   -0.001144824
      9        1           0.000625934    0.000393380    0.000610804
     10        1           0.000624001    0.000387788   -0.000616333
 -------------------------------------------------------------------
 Cartesian Forces:  Max     0.011504187 RMS     0.002654423

 GradGradGradGradGradGradGradGradGradGradGradGradGradGradGradGradGradGrad
 Berny optimization.
 Using GEDIIS/GDIIS optimizer.
 FormGI is forming the generalized inverse of G from B-inverse, IUseBI=4.
 Internal  Forces:  Max     0.011794752 RMS     0.002226678
 Search for a local minimum.
 Step number   3 out of a maximum of   49
 All quantities printed in internal units (Hartrees-Bohrs-Radians)
 Mixed Optimization -- RFO/linear search
 Update second derivatives using D2CorX and points    1    2    3
 DE= -1.45D-03 DEPred=-1.78D-03 R= 8.16D-01
 TightC=F SS=  1.41D+00  RLast= 1.14D-01 DXNew= 8.4853D-01 3.4203D-01
 Trust test= 8.16D-01 RLast= 1.14D-01 DXMaxT set to 5.05D-01
 ITU=  1  1  0
 Use linear search instead of GDIIS.
     Eigenvalues ---    0.00405   0.00595   0.00595   0.03788   0.05325
     Eigenvalues ---    0.05473   0.05664   0.09817   0.13149   0.15967
     Eigenvalues ---    0.16000   0.16000   0.21379   0.22848   0.27352
     Eigenvalues ---    0.29776   0.31725   0.32460   0.32497   0.32510
     Eigenvalues ---    0.32572   0.34961   0.60901   0.92061
 RFO step:  Lambda=-2.57249109D-04 EMin= 4.05360551D-03
 Quartic linear search produced a step of -0.14737.
 Iteration  1 RMS(Cart)=  0.00687372 RMS(Int)=  0.00002235
 Iteration  2 RMS(Cart)=  0.00002788 RMS(Int)=  0.00001311
 Iteration  3 RMS(Cart)=  0.00000000 RMS(Int)=  0.00001311
 ClnCor:  largest displacement from symmetrization is 9.18D-09 for atom     8.
 Variable       Old X    -DE/DX   Delta X   Delta X   Delta X     New X
                                 (Linear)    (Quad)   (Total)
    R1        2.88601  -0.00093   0.00121  -0.00418  -0.00297   2.88304
    R2        2.07873  -0.00019   0.00043  -0.00104  -0.00061   2.07812
    R3        2.06374   0.00163   0.00046   0.00362   0.00408   2.06782
    R4        2.06374   0.00163   0.00046   0.00362   0.00408   2.06782
    R5        2.94379   0.00166  -0.00841   0.01521   0.00679   2.95058
    R6        2.07418   0.00078   0.00012   0.00186   0.00198   2.07617
    R7        2.07418   0.00078   0.00012   0.00186   0.00198   2.07617
    R8        2.35540   0.01179   0.01064   0.00524   0.01588   2.37128
    R9        2.36717   0.00396  -0.00245   0.00640   0.00394   2.37111
    A1        1.94667   0.00030  -0.00156   0.00486   0.00330   1.94998
    A2        1.92712   0.00015   0.00040  -0.00024   0.00016   1.92728
    A3        1.92712   0.00015   0.00040  -0.00024   0.00016   1.92728
    A4        1.89860  -0.00017  -0.00089   0.00132   0.00043   1.89903
    A5        1.89860  -0.00017  -0.00089   0.00132   0.00043   1.89903
    A6        1.86348  -0.00030   0.00266  -0.00750  -0.00484   1.85864
    A7        2.01296  -0.00248  -0.00152  -0.00819  -0.00969   2.00327
    A8        1.92435   0.00106  -0.00087   0.00722   0.00634   1.93069
    A9        1.92435   0.00106  -0.00087   0.00722   0.00634   1.93069
   A10        1.87620   0.00044   0.00009  -0.00100  -0.00088   1.87532
   A11        1.87620   0.00044   0.00009  -0.00100  -0.00088   1.87532
   A12        1.84111  -0.00039   0.00354  -0.00436  -0.00085   1.84026
   A13        2.02529   0.00182  -0.00177   0.00815   0.00638   2.03167
   A14        2.01147  -0.00348   0.00201  -0.01437  -0.01236   1.99912
   A15        2.24642   0.00165  -0.00024   0.00621   0.00598   2.25239
    D1       -3.14159   0.00000   0.00000  -0.00000  -0.00000   3.14159
    D2        1.01298   0.00039   0.00164   0.00162   0.00328   1.01626
    D3       -1.01298  -0.00039  -0.00164  -0.00162  -0.00328  -1.01626
    D4        1.02837  -0.00009   0.00190  -0.00477  -0.00288   1.02549
    D5       -1.10024   0.00030   0.00354  -0.00316   0.00040  -1.09984
    D6       -3.12621  -0.00048   0.00025  -0.00639  -0.00616  -3.13237
    D7       -1.02837   0.00009  -0.00190   0.00477   0.00288  -1.02549
    D8        3.12621   0.00048  -0.00025   0.00639   0.00616   3.13237
    D9        1.10024  -0.00030  -0.00354   0.00316  -0.00040   1.09984
   D10        0.00000  -0.00000   0.00000   0.00000   0.00000   0.00000
   D11        3.14159  -0.00000   0.00000   0.00000   0.00000   3.14159
   D12        2.15427   0.00002  -0.00209   0.00299   0.00091   2.15517
   D13       -0.98733   0.00002  -0.00209   0.00299   0.00091  -0.98642
   D14       -2.15427  -0.00002   0.00209  -0.00299  -0.00091  -2.15517
   D15        0.98733  -0.00002   0.00209  -0.00299  -0.00091   0.98642
         Item               Value     Threshold  Converged?
 Maximum Force            0.011795     0.000450     NO 
 RMS     Force            0.002227     0.000300     NO 
 Maximum Displacement     0.022422     0.001800     NO 
 RMS     Displacement     0.006884     0.001200     NO 
 Predicted change in Energy=-1.738954D-04
 GradGradGradGradGradGradGradGradGradGradGradGradGradGradGradGradGradGrad

                          Input orientation:                          
 ---------------------------------------------------------------------
 Center     Atomic      Atomic             Coordinates (Angstroms)
 Number     Number       Type             X           Y           Z
 ---------------------------------------------------------------------
      1          6           0       -5.361082   -2.179715   -0.001076
      2          6           0       -3.986833   -1.517157   -0.006260
      3          6           0       -2.781704   -2.509914   -0.003635
      4          8           0       -3.065568   -3.732198    0.002382
      5          8           0       -1.653745   -1.960317   -0.007916
      6          1           0       -6.171416   -1.436292   -0.003187
      7          1           0       -5.472687   -2.820663    0.878753
      8          1           0       -5.475449   -2.828653   -0.874671
      9          1           0       -3.872068   -0.857436    0.864745
     10          1           0       -3.874822   -0.865403   -0.883599
 ---------------------------------------------------------------------
                    Distance matrix (angstroms):
                    1          2          3          4          5
     1  C    0.000000
     2  C    1.525638   0.000000
     3  C    2.600429   1.561381   0.000000
     4  O    2.771209   2.399002   1.254828   0.000000
     5  O    3.713830   2.374804   1.254737   2.265593   0.000000
     6  H    1.099692   2.186082   3.555674   3.862319   4.547964
     7  H    1.094243   2.165673   2.848958   2.719034   4.013813
     8  H    1.094243   2.165673   2.848958   2.719034   4.013813
     9  H    2.171459   1.098659   2.161865   3.107791   2.626564
    10  H    2.171459   1.098659   2.161865   3.107791   2.626564
                    6          7          8          9         10
     6  H    0.000000
     7  H    1.783963   0.000000
     8  H    1.783963   1.753444   0.000000
     9  H    2.524952   2.533069   3.079301   0.000000
    10  H    2.524952   3.079301   2.533069   1.748364   0.000000
 Stoichiometry    C3H5O2(1-)
 Framework group  CS[SG(C3HO2),X(H4)]
 Deg. of freedom    15
 Full point group                 CS      NOp   2
 Largest Abelian subgroup         CS      NOp   2
 Largest concise Abelian subgroup CS      NOp   2
                         Standard orientation:                         
 ---------------------------------------------------------------------
 Center     Atomic      Atomic             Coordinates (Angstroms)
 Number     Number       Type             X           Y           Z
 ---------------------------------------------------------------------
      1          6           0        0.266180   -1.878073    0.000000
      2          6           0       -0.692075   -0.690925   -0.000000
      3          6           0        0.000000    0.708697   -0.000000
      4          8           0        1.254826    0.710784    0.000000
      5          8           0       -0.792147    1.681769   -0.000000
      6          1           0       -0.273068   -2.836476    0.000000
      7          1           0        0.919910   -1.841144    0.876722
      8          1           0        0.919910   -1.841144   -0.876722
      9          1           0       -1.356407   -0.729922    0.874182
     10          1           0       -1.356407   -0.729922   -0.874182
 ---------------------------------------------------------------------
 Rotational constants (GHZ):     10.2040770      3.9949333      2.9753934
 Basis read from rwf:  (6D, 7F)
 There are    76 symmetry adapted cartesian basis functions of A'  symmetry.
 There are    29 symmetry adapted cartesian basis functions of A"  symmetry.
 There are    76 symmetry adapted basis functions of A'  symmetry.
 There are    29 symmetry adapted basis functions of A"  symmetry.
   105 basis functions,   180 primitive gaussians,   105 cartesian basis functions
    20 alpha electrons       20 beta electrons
       nuclear repulsion energy       168.1522772731 Hartrees.
 NAtoms=   10 NActive=   10 NUniq=    8 SFac= 1.56D+00 NAtFMM=   60 NAOKFM=F Big=F
 Integral buffers will be    131072 words long.
 Raffenetti 2 integral format.
 Two-electron integral symmetry is turned on.
 One-electron integrals computed using PRISM.
 NBasis=   105 RedAO= T EigKep=  1.82D-04  NBF=    76    29
 NBsUse=   105 1.00D-06 EigRej= -1.00D+00 NBFU=    76    29
 Initial guess from the checkpoint file:  "Prop.M062X_6-31pGd_opt.chk"
 B after Tr=     0.000000   -0.000000   -0.000000
         Rot=    0.999998   -0.000000    0.000000   -0.001888 Ang=  -0.22 deg.
 Initial guess orbital symmetries:
       Occupied  (A') (A') (A') (A') (A') (A') (A') (A') (A') (A')
                 (A") (A') (A') (A") (A') (A') (A") (A") (A') (A')
       Virtual   (A') (A') (A') (A') (A') (A') (A') (A') (A') (A')
                 (A') (A') (A') (A') (A') (A') (A') (A') (A') (A')
                 (A') (A') (A') (A') (A') (A') (A') (A') (A') (A')
                 (A') (A') (A') (A') (A') (A') (A') (A') (A') (A')
                 (A') (A') (A') (A') (A') (A') (A') (A') (A') (A')
                 (A') (A') (A') (A') (A') (A') (A') (A') (A') (A')
                 (A") (A") (A") (A") (A") (A") (A") (A") (A") (A")
                 (A") (A") (A") (A") (A") (A") (A") (A") (A") (A")
                 (A") (A") (A") (A") (A")
 ExpMin= 4.38D-02 ExpMax= 5.48D+03 ExpMxC= 8.25D+02 IAcc=2 IRadAn=         4 AccDes= 0.00D+00
 Harris functional with IExCor= 1009 and IRadAn=       4 diagonalized for initial guess.
 HarFok:  IExCor= 1009 AccDes= 0.00D+00 IRadAn=         4 IDoV= 1 UseB2=F ITyADJ=14
 ICtDFT=  3500011 ScaDFX=  1.000000  1.000000  1.000000  1.000000
 FoFCou: FMM=F IPFlag=           0 FMFlag=      100000 FMFlg1=           0
         NFxFlg=           0 DoJE=T BraDBF=F KetDBF=T FulRan=T
         wScrn=  0.000000 ICntrl=     500 IOpCl=  0 I1Cent=   200000004 NGrid=           0
         NMat0=    1 NMatS0=      1 NMatT0=    0 NMatD0=    1 NMtDS0=    0 NMtDT0=    0
 Petite list used in FoFCou.
 Keep R1 ints in memory in symmetry-blocked form, NReq=23632887.
 Requested convergence on RMS density matrix=1.00D-08 within 128 cycles.
 Requested convergence on MAX density matrix=1.00D-06.
 Requested convergence on             energy=1.00D-06.
 No special actions if energy rises.
 SCF Done:  E(RM062X) =  -267.729181477     A.U. after   11 cycles
            NFock= 11  Conv=0.22D-08     -V/T= 2.0085
 Calling FoFJK, ICntrl=      2127 FMM=F ISym2X=1 I1Cent= 0 IOpClX= 0 NMat=1 NMatS=1 NMatT=0.
 ***** Axes restored to original set *****
 -------------------------------------------------------------------
 Center     Atomic                   Forces (Hartrees/Bohr)
 Number     Number              X              Y              Z
 -------------------------------------------------------------------
      1        6           0.000607563    0.000265936   -0.000002169
      2        6          -0.000872929    0.000785358   -0.000002204
      3        6          -0.000498078   -0.000365383    0.000002450
      4        8           0.000429248    0.000773926   -0.000004203
      5        8           0.000106151   -0.000362929    0.000001487
      6        1          -0.000227937   -0.000163080    0.000001102
      7        1          -0.000056325   -0.000088959    0.000181664
      8        1          -0.000056895   -0.000090610   -0.000180667
      9        1           0.000284838   -0.000376443    0.000151842
     10        1           0.000284363   -0.000377816   -0.000149302
 -------------------------------------------------------------------
 Cartesian Forces:  Max     0.000872929 RMS     0.000355199

 GradGradGradGradGradGradGradGradGradGradGradGradGradGradGradGradGradGrad
 Berny optimization.
 Using GEDIIS/GDIIS optimizer.
 FormGI is forming the generalized inverse of G from B-inverse, IUseBI=4.
 Internal  Forces:  Max     0.000850905 RMS     0.000231021
 Search for a local minimum.
 Step number   4 out of a maximum of   49
 All quantities printed in internal units (Hartrees-Bohrs-Radians)
 Mixed Optimization -- En-DIIS/RFO-DIIS
 Update second derivatives using D2CorX and points    1    2    3    4
 DE= -1.69D-04 DEPred=-1.74D-04 R= 9.71D-01
 TightC=F SS=  1.41D+00  RLast= 3.04D-02 DXNew= 8.4853D-01 9.1108D-02
 Trust test= 9.71D-01 RLast= 3.04D-02 DXMaxT set to 5.05D-01
 ITU=  1  1  1  0
 Use linear search instead of GDIIS.
     Eigenvalues ---    0.00405   0.00595   0.00595   0.03836   0.05214
     Eigenvalues ---    0.05442   0.05626   0.09347   0.13096   0.15748
     Eigenvalues ---    0.16000   0.16021   0.21019   0.23637   0.27559
     Eigenvalues ---    0.29770   0.31754   0.32446   0.32460   0.32510
     Eigenvalues ---    0.32558   0.34589   0.66401   0.93542
 RFO step:  Lambda=-1.27142474D-05 EMin= 4.05360551D-03
 Quartic linear search produced a step of -0.02008.
 Iteration  1 RMS(Cart)=  0.00236973 RMS(Int)=  0.00000573
 Iteration  2 RMS(Cart)=  0.00000526 RMS(Int)=  0.00000335
 Iteration  3 RMS(Cart)=  0.00000000 RMS(Int)=  0.00000335
 ClnCor:  largest displacement from symmetrization is 1.27D-08 for atom    10.
 Variable       Old X    -DE/DX   Delta X   Delta X   Delta X     New X
                                 (Linear)    (Quad)   (Total)
    R1        2.88304  -0.00021   0.00006  -0.00091  -0.00085   2.88218
    R2        2.07812   0.00006   0.00001   0.00010   0.00011   2.07823
    R3        2.06782   0.00020  -0.00008   0.00085   0.00077   2.06859
    R4        2.06782   0.00020  -0.00008   0.00085   0.00077   2.06859
    R5        2.95058  -0.00000  -0.00014   0.00071   0.00058   2.95116
    R6        2.07617  -0.00008  -0.00004  -0.00013  -0.00017   2.07600
    R7        2.07617  -0.00008  -0.00004  -0.00013  -0.00017   2.07600
    R8        2.37128  -0.00085  -0.00032  -0.00086  -0.00118   2.37010
    R9        2.37111  -0.00006  -0.00008   0.00035   0.00027   2.37138
    A1        1.94998   0.00039  -0.00007   0.00281   0.00275   1.95272
    A2        1.92728  -0.00004  -0.00000  -0.00032  -0.00032   1.92696
    A3        1.92728  -0.00004  -0.00000  -0.00032  -0.00032   1.92696
    A4        1.89903  -0.00017  -0.00001  -0.00089  -0.00090   1.89813
    A5        1.89903  -0.00017  -0.00001  -0.00089  -0.00090   1.89813
    A6        1.85864   0.00001   0.00010  -0.00058  -0.00049   1.85815
    A7        2.00327  -0.00030   0.00019  -0.00310  -0.00291   2.00036
    A8        1.93069   0.00025  -0.00013   0.00258   0.00245   1.93314
    A9        1.93069   0.00025  -0.00013   0.00258   0.00245   1.93314
   A10        1.87532  -0.00015   0.00002  -0.00281  -0.00279   1.87252
   A11        1.87532  -0.00015   0.00002  -0.00281  -0.00279   1.87252
   A12        1.84026   0.00013   0.00002   0.00391   0.00391   1.84417
   A13        2.03167   0.00009  -0.00013   0.00065   0.00053   2.03220
   A14        1.99912   0.00040   0.00025   0.00059   0.00083   1.99995
   A15        2.25239  -0.00049  -0.00012  -0.00124  -0.00136   2.25103
    D1        3.14159   0.00000   0.00000  -0.00000   0.00000   3.14159
    D2        1.01626   0.00023  -0.00007   0.00397   0.00391   1.02017
    D3       -1.01626  -0.00023   0.00007  -0.00397  -0.00391  -1.02017
    D4        1.02549  -0.00002   0.00006  -0.00056  -0.00050   1.02499
    D5       -1.09984   0.00021  -0.00001   0.00341   0.00341  -1.09643
    D6       -3.13237  -0.00025   0.00012  -0.00452  -0.00441  -3.13678
    D7       -1.02549   0.00002  -0.00006   0.00056   0.00050  -1.02499
    D8        3.13237   0.00025  -0.00012   0.00452   0.00441   3.13678
    D9        1.09984  -0.00021   0.00001  -0.00341  -0.00341   1.09643
   D10       -0.00000  -0.00000   0.00000   0.00000   0.00000   0.00000
   D11        3.14159  -0.00000   0.00000   0.00000   0.00000   3.14159
   D12        2.15517  -0.00000  -0.00002  -0.00091  -0.00093   2.15425
   D13       -0.98642  -0.00000  -0.00002  -0.00091  -0.00093  -0.98734
   D14       -2.15517   0.00000   0.00002   0.00091   0.00093  -2.15425
   D15        0.98642   0.00000   0.00002   0.00091   0.00093   0.98734
         Item               Value     Threshold  Converged?
 Maximum Force            0.000851     0.000450     NO 
 RMS     Force            0.000231     0.000300     YES
 Maximum Displacement     0.005718     0.001800     NO 
 RMS     Displacement     0.002370     0.001200     NO 
 Predicted change in Energy=-6.460411D-06
 GradGradGradGradGradGradGradGradGradGradGradGradGradGradGradGradGradGrad

                          Input orientation:                          
 ---------------------------------------------------------------------
 Center     Atomic      Atomic             Coordinates (Angstroms)
 Number     Number       Type             X           Y           Z
 ---------------------------------------------------------------------
      1          6           0       -5.360490   -2.179262   -0.001079
      2          6           0       -3.987700   -1.514722   -0.006270
      3          6           0       -2.783646   -2.509263   -0.003635
      4          8           0       -3.068339   -3.730713    0.002380
      5          8           0       -1.654380   -1.962035   -0.007907
      6          1           0       -6.174080   -1.439318   -0.003169
      7          1           0       -5.470596   -2.820933    0.878919
      8          1           0       -5.473359   -2.828925   -0.874840
      9          1           0       -3.870012   -0.857300    0.865970
     10          1           0       -3.872770   -0.865279   -0.884831
 ---------------------------------------------------------------------
                    Distance matrix (angstroms):
                    1          2          3          4          5
     1  C    0.000000
     2  C    1.525186   0.000000
     3  C    2.597890   1.561686   0.000000
     4  O    2.767845   2.399148   1.254203   0.000000
     5  O    3.712477   2.375811   1.254878   2.264422   0.000000
     6  H    1.099750   2.187682   3.555253   3.859553   4.549830
     7  H    1.094650   2.165347   2.845301   2.714195   4.010944
     8  H    1.094650   2.165347   2.845301   2.714195   4.010944
     9  H    2.172759   1.098570   2.159950   3.105634   2.625477
    10  H    2.172759   1.098570   2.159950   3.105634   2.625477
                    6          7          8          9         10
     6  H    0.000000
     7  H    1.783768   0.000000
     8  H    1.783768   1.753779   0.000000
     9  H    2.530391   2.533356   3.080332   0.000000
    10  H    2.530391   3.080332   2.533356   1.750821   0.000000
 Stoichiometry    C3H5O2(1-)
 Framework group  CS[SG(C3HO2),X(H4)]
 Deg. of freedom    15
 Full point group                 CS      NOp   2
 Largest Abelian subgroup         CS      NOp   2
 Largest concise Abelian subgroup CS      NOp   2
                         Standard orientation:                         
 ---------------------------------------------------------------------
 Center     Atomic      Atomic             Coordinates (Angstroms)
 Number     Number       Type             X           Y           Z
 ---------------------------------------------------------------------
      1          6           0        0.265815   -1.876632    0.000000
      2          6           0       -0.694046   -0.691364    0.000000
      3          6           0        0.000000    0.707623   -0.000000
      4          8           0        1.254203    0.708722   -0.000000
      5          8           0       -0.790146    1.682502    0.000000
      6          1           0       -0.269295   -2.837417    0.000000
      7          1           0        0.919909   -1.838074    0.876889
      8          1           0        0.919909   -1.838074   -0.876889
      9          1           0       -1.356799   -0.726997    0.875410
     10          1           0       -1.356799   -0.726997   -0.875410
 ---------------------------------------------------------------------
 Rotational constants (GHZ):     10.2117503      3.9982470      2.9780569
 Basis read from rwf:  (6D, 7F)
 There are    76 symmetry adapted cartesian basis functions of A'  symmetry.
 There are    29 symmetry adapted cartesian basis functions of A"  symmetry.
 There are    76 symmetry adapted basis functions of A'  symmetry.
 There are    29 symmetry adapted basis functions of A"  symmetry.
   105 basis functions,   180 primitive gaussians,   105 cartesian basis functions
    20 alpha electrons       20 beta electrons
       nuclear repulsion energy       168.1953153129 Hartrees.
 NAtoms=   10 NActive=   10 NUniq=    8 SFac= 1.56D+00 NAtFMM=   60 NAOKFM=F Big=F
 Integral buffers will be    131072 words long.
 Raffenetti 2 integral format.
 Two-electron integral symmetry is turned on.
 One-electron integrals computed using PRISM.
 NBasis=   105 RedAO= T EigKep=  1.82D-04  NBF=    76    29
 NBsUse=   105 1.00D-06 EigRej= -1.00D+00 NBFU=    76    29
 Initial guess from the checkpoint file:  "Prop.M062X_6-31pGd_opt.chk"
 B after Tr=    -0.000000    0.000000   -0.000000
         Rot=    1.000000   -0.000000    0.000000    0.000254 Ang=   0.03 deg.
 Initial guess orbital symmetries:
       Occupied  (A') (A') (A') (A') (A') (A') (A') (A') (A') (A')
                 (A") (A') (A') (A") (A') (A') (A") (A") (A') (A')
       Virtual   (A') (A') (A') (A') (A') (A') (A') (A') (A') (A')
                 (A') (A') (A') (A') (A') (A') (A') (A') (A') (A')
                 (A') (A') (A') (A') (A') (A') (A') (A') (A') (A')
                 (A') (A') (A') (A') (A') (A') (A') (A') (A') (A')
                 (A') (A') (A') (A') (A') (A') (A') (A') (A') (A')
                 (A') (A') (A') (A') (A') (A') (A') (A') (A') (A')
                 (A") (A") (A") (A") (A") (A") (A") (A") (A") (A")
                 (A") (A") (A") (A") (A") (A") (A") (A") (A") (A")
                 (A") (A") (A") (A") (A")
 Keep R1 ints in memory in symmetry-blocked form, NReq=23632887.
 Requested convergence on RMS density matrix=1.00D-08 within 128 cycles.
 Requested convergence on MAX density matrix=1.00D-06.
 Requested convergence on             energy=1.00D-06.
 No special actions if energy rises.
 SCF Done:  E(RM062X) =  -267.729188934     A.U. after   10 cycles
            NFock= 10  Conv=0.52D-08     -V/T= 2.0085
 Calling FoFJK, ICntrl=      2127 FMM=F ISym2X=1 I1Cent= 0 IOpClX= 0 NMat=1 NMatS=1 NMatT=0.
 ***** Axes restored to original set *****
 -------------------------------------------------------------------
 Center     Atomic                   Forces (Hartrees/Bohr)
 Number     Number              X              Y              Z
 -------------------------------------------------------------------
      1        6           0.000141619   -0.000005382   -0.000000199
      2        6          -0.000240215    0.000240432   -0.000000717
      3        6           0.000037438    0.000030586   -0.000000198
      4        8           0.000092572    0.000003130   -0.000000160
      5        8          -0.000035417   -0.000086633    0.000000451
      6        1          -0.000086311   -0.000024006    0.000000245
      7        1           0.000006319    0.000052618   -0.000044653
      8        1           0.000006459    0.000053023    0.000044152
      9        1           0.000038724   -0.000132013   -0.000027816
     10        1           0.000038813   -0.000131755    0.000028896
 -------------------------------------------------------------------
 Cartesian Forces:  Max     0.000240432 RMS     0.000084124

 GradGradGradGradGradGradGradGradGradGradGradGradGradGradGradGradGradGrad
 Berny optimization.
 Using GEDIIS/GDIIS optimizer.
 FormGI is forming the generalized inverse of G from B-inverse, IUseBI=4.
 Internal  Forces:  Max     0.000120172 RMS     0.000055124
 Search for a local minimum.
 Step number   5 out of a maximum of   49
 All quantities printed in internal units (Hartrees-Bohrs-Radians)
 Mixed Optimization -- En-DIIS/RFO-DIIS
 Swapping is turned off.
 Update second derivatives using D2CorX and points    1    2    3    4    5
 DE= -7.46D-06 DEPred=-6.46D-06 R= 1.15D+00
 TightC=F SS=  1.41D+00  RLast= 1.28D-02 DXNew= 8.4853D-01 3.8428D-02
 Trust test= 1.15D+00 RLast= 1.28D-02 DXMaxT set to 5.05D-01
 ITU=  1  1  1  1  0
     Eigenvalues ---    0.00405   0.00595   0.00595   0.03860   0.04524
     Eigenvalues ---    0.05425   0.05605   0.09054   0.13074   0.15223
     Eigenvalues ---    0.16000   0.16001   0.21537   0.24110   0.27597
     Eigenvalues ---    0.29537   0.31459   0.32411   0.32460   0.32510
     Eigenvalues ---    0.33030   0.34841   0.66814   0.93702
 En-DIIS/RFO-DIIS IScMMF=        0 using points:     5    4
 RFO step:  Lambda=-2.83681095D-07.
 DidBck=F Rises=F RFO-DIIS coefs:    1.18924   -0.18924
 Iteration  1 RMS(Cart)=  0.00050004 RMS(Int)=  0.00000087
 Iteration  2 RMS(Cart)=  0.00000029 RMS(Int)=  0.00000082
 ClnCor:  largest displacement from symmetrization is 9.35D-10 for atom     4.
 Variable       Old X    -DE/DX   Delta X   Delta X   Delta X     New X
                                 (Linear)    (Quad)   (Total)
    R1        2.88218  -0.00009  -0.00016  -0.00028  -0.00044   2.88175
    R2        2.07823   0.00005   0.00002   0.00014   0.00016   2.07839
    R3        2.06859  -0.00007   0.00015  -0.00034  -0.00020   2.06839
    R4        2.06859  -0.00007   0.00015  -0.00034  -0.00020   2.06839
    R5        2.95116   0.00011   0.00011   0.00042   0.00053   2.95169
    R6        2.07600  -0.00010  -0.00003  -0.00032  -0.00036   2.07564
    R7        2.07600  -0.00010  -0.00003  -0.00032  -0.00036   2.07564
    R8        2.37010  -0.00002  -0.00022   0.00021  -0.00002   2.37008
    R9        2.37138  -0.00007   0.00005  -0.00005  -0.00000   2.37137
    A1        1.95272   0.00011   0.00052   0.00051   0.00103   1.95376
    A2        1.92696  -0.00003  -0.00006  -0.00016  -0.00022   1.92673
    A3        1.92696  -0.00003  -0.00006  -0.00016  -0.00022   1.92673
    A4        1.89813  -0.00004  -0.00017  -0.00012  -0.00029   1.89784
    A5        1.89813  -0.00004  -0.00017  -0.00012  -0.00029   1.89784
    A6        1.85815   0.00002  -0.00009   0.00003  -0.00006   1.85809
    A7        2.00036   0.00005  -0.00055   0.00038  -0.00017   2.00019
    A8        1.93314   0.00001   0.00046  -0.00003   0.00043   1.93357
    A9        1.93314   0.00001   0.00046  -0.00003   0.00043   1.93357
   A10        1.87252  -0.00006  -0.00053  -0.00035  -0.00088   1.87165
   A11        1.87252  -0.00006  -0.00053  -0.00035  -0.00088   1.87165
   A12        1.84417   0.00005   0.00074   0.00037   0.00110   1.84528
   A13        2.03220   0.00009   0.00010   0.00034   0.00044   2.03264
   A14        1.99995   0.00003   0.00016  -0.00015   0.00000   1.99995
   A15        2.25103  -0.00012  -0.00026  -0.00019  -0.00044   2.25059
    D1        3.14159  -0.00000   0.00000  -0.00000   0.00000  -3.14159
    D2        1.02017   0.00004   0.00074   0.00021   0.00095   1.02112
    D3       -1.02017  -0.00004  -0.00074  -0.00021  -0.00095  -1.02112
    D4        1.02499  -0.00001  -0.00009  -0.00008  -0.00018   1.02481
    D5       -1.09643   0.00003   0.00065   0.00012   0.00077  -1.09566
    D6       -3.13678  -0.00004  -0.00083  -0.00029  -0.00112  -3.13790
    D7       -1.02499   0.00001   0.00009   0.00008   0.00018  -1.02481
    D8        3.13678   0.00004   0.00083   0.00029   0.00112   3.13790
    D9        1.09643  -0.00003  -0.00065  -0.00012  -0.00077   1.09566
   D10       -0.00000  -0.00000   0.00000   0.00000   0.00000   0.00000
   D11        3.14159   0.00000   0.00000   0.00000   0.00000   3.14159
   D12        2.15425   0.00000  -0.00018  -0.00005  -0.00022   2.15403
   D13       -0.98734   0.00000  -0.00018  -0.00005  -0.00022  -0.98757
   D14       -2.15425  -0.00000   0.00018   0.00005   0.00022  -2.15403
   D15        0.98734  -0.00000   0.00018   0.00005   0.00022   0.98757
         Item               Value     Threshold  Converged?
 Maximum Force            0.000120     0.000450     YES
 RMS     Force            0.000055     0.000300     YES
 Maximum Displacement     0.001776     0.001800     YES
 RMS     Displacement     0.000500     0.001200     YES
 Predicted change in Energy=-4.133556D-07
 Optimization completed.
    -- Stationary point found.
                           ----------------------------
                           !   Optimized Parameters   !
                           ! (Angstroms and Degrees)  !
 --------------------------                            --------------------------
 ! Name  Definition              Value          Derivative Info.                !
 --------------------------------------------------------------------------------
 ! R1    R(1,2)                  1.5252         -DE/DX =   -0.0001              !
 ! R2    R(1,6)                  1.0998         -DE/DX =    0.0                 !
 ! R3    R(1,7)                  1.0947         -DE/DX =   -0.0001              !
 ! R4    R(1,8)                  1.0947         -DE/DX =   -0.0001              !
 ! R5    R(2,3)                  1.5617         -DE/DX =    0.0001              !
 ! R6    R(2,9)                  1.0986         -DE/DX =   -0.0001              !
 ! R7    R(2,10)                 1.0986         -DE/DX =   -0.0001              !
 ! R8    R(3,4)                  1.2542         -DE/DX =    0.0                 !
 ! R9    R(3,5)                  1.2549         -DE/DX =   -0.0001              !
 ! A1    A(2,1,6)              111.8828         -DE/DX =    0.0001              !
 ! A2    A(2,1,7)              110.4066         -DE/DX =    0.0                 !
 ! A3    A(2,1,8)              110.4066         -DE/DX =    0.0                 !
 ! A4    A(6,1,7)              108.7548         -DE/DX =    0.0                 !
 ! A5    A(6,1,8)              108.7548         -DE/DX =    0.0                 !
 ! A6    A(7,1,8)              106.4644         -DE/DX =    0.0                 !
 ! A7    A(1,2,3)              114.6123         -DE/DX =    0.0                 !
 ! A8    A(1,2,9)              110.7607         -DE/DX =    0.0                 !
 ! A9    A(1,2,10)             110.7607         -DE/DX =    0.0                 !
 ! A10   A(3,2,9)              107.2877         -DE/DX =   -0.0001              !
 ! A11   A(3,2,10)             107.2877         -DE/DX =   -0.0001              !
 ! A12   A(9,2,10)             105.6633         -DE/DX =    0.0                 !
 ! A13   A(2,3,4)              116.4365         -DE/DX =    0.0001              !
 ! A14   A(2,3,5)              114.5888         -DE/DX =    0.0                 !
 ! A15   A(4,3,5)              128.9748         -DE/DX =   -0.0001              !
 ! D1    D(6,1,2,3)           -180.0            -DE/DX =    0.0                 !
 ! D2    D(6,1,2,9)             58.4515         -DE/DX =    0.0                 !
 ! D3    D(6,1,2,10)           -58.4515         -DE/DX =    0.0                 !
 ! D4    D(7,1,2,3)             58.7275         -DE/DX =    0.0                 !
 ! D5    D(7,1,2,9)            -62.821          -DE/DX =    0.0                 !
 ! D6    D(7,1,2,10)          -179.7241         -DE/DX =    0.0                 !
 ! D7    D(8,1,2,3)            -58.7275         -DE/DX =    0.0                 !
 ! D8    D(8,1,2,9)            179.7241         -DE/DX =    0.0                 !
 ! D9    D(8,1,2,10)            62.821          -DE/DX =    0.0                 !
 ! D10   D(1,2,3,4)              0.0            -DE/DX =    0.0                 !
 ! D11   D(1,2,3,5)            180.0            -DE/DX =    0.0                 !
[...]
 Vibration     1          0.594              1.982              5.457
 Vibration     2          0.641              1.829              2.066
 Vibration     3          0.674              1.728              1.593
 Vibration     4          0.852              1.259              0.668
 Vibration     5          0.938              1.072              0.483
                       Q            Log10(Q)             Ln(Q)
 Total Bot       0.497109D-22        -22.303548        -51.355817
 Total V=0       0.341593D+14         13.533508         31.162055
 Vib (Bot)       0.257476D-34        -34.589263        -79.644722
 Vib (Bot)    1  0.571656D+01          0.757135          1.743368
 Vib (Bot)    2  0.958639D+00         -0.018345         -0.042241
 Vib (Bot)    3  0.714230D+00         -0.146162         -0.336550
 Vib (Bot)    4  0.332468D+00         -0.478250         -1.101212
 Vib (Bot)    5  0.261722D+00         -0.582160         -1.340473
 Vib (V=0)       0.176927D+02          1.247793          2.873150
 Vib (V=0)    1  0.623839D+01          0.795072          1.830722
 Vib (V=0)    2  0.158120D+01          0.198986          0.458182
 Vib (V=0)    3  0.137185D+01          0.137307          0.316161
 Vib (V=0)    4  0.110045D+01          0.041569          0.095715
 Vib (V=0)    5  0.106436D+01          0.027087          0.062370
 Electronic      0.100000D+01          0.000000          0.000000
 Translational   0.245300D+08          7.389698         17.015408
 Rotational      0.787077D+05          4.896017         11.273497
 ***** Axes restored to original set *****
 -------------------------------------------------------------------
 Center     Atomic                   Forces (Hartrees/Bohr)
 Number     Number              X              Y              Z
 -------------------------------------------------------------------
      1        6           0.000141618   -0.000005381   -0.000000199
      2        6          -0.000240213    0.000240433   -0.000000717
      3        6           0.000037430    0.000030576   -0.000000198
      4        8           0.000092573    0.000003136   -0.000000160
      5        8          -0.000035412   -0.000086630    0.000000451
      6        1          -0.000086311   -0.000024006    0.000000245
      7        1           0.000006319    0.000052618   -0.000044653
      8        1           0.000006459    0.000053023    0.000044151
      9        1           0.000038724   -0.000132013   -0.000027816
     10        1           0.000038813   -0.000131755    0.000028896
 -------------------------------------------------------------------
 Cartesian Forces:  Max     0.000240433 RMS     0.000084123
 FormGI is forming the generalized inverse of G from B-inverse, IUseBI=4.

 GradGradGradGradGradGradGradGradGradGradGradGradGradGradGradGradGradGrad
 Berny optimization.
 Internal  Forces:  Max     0.000120171 RMS     0.000055124
 Search for a local minimum.
 Step number   1 out of a maximum of    2
 All quantities printed in internal units (Hartrees-Bohrs-Radians)
 Second derivative matrix not updated -- analytic derivatives used.
 ITU=  0
     Eigenvalues ---    0.00033   0.00184   0.03370   0.04175   0.04566
     Eigenvalues ---    0.04577   0.07602   0.08076   0.10942   0.12184
     Eigenvalues ---    0.14550   0.15759   0.19008   0.21729   0.24011
     Eigenvalues ---    0.31306   0.33086   0.33156   0.33850   0.34453
     Eigenvalues ---    0.35182   0.35627   0.58849   0.78719
 Angle between quadratic step and forces=  46.02 degrees.
 Linear search not attempted -- first point.
 Iteration  1 RMS(Cart)=  0.00048255 RMS(Int)=  0.00000034
 Iteration  2 RMS(Cart)=  0.00000029 RMS(Int)=  0.00000016
 ClnCor:  largest displacement from symmetrization is 5.89D-09 for atom     4.
 Variable       Old X    -DE/DX   Delta X   Delta X   Delta X     New X
                                 (Linear)    (Quad)   (Total)
    R1        2.88218  -0.00009   0.00000  -0.00045  -0.00045   2.88173
    R2        2.07823   0.00005   0.00000   0.00016   0.00016   2.07839
    R3        2.06859  -0.00007   0.00000  -0.00017  -0.00017   2.06842
    R4        2.06859  -0.00007   0.00000  -0.00017  -0.00017   2.06842
    R5        2.95116   0.00011   0.00000   0.00062   0.00062   2.95178
    R6        2.07600  -0.00010   0.00000  -0.00035  -0.00035   2.07565
    R7        2.07600  -0.00010   0.00000  -0.00035  -0.00035   2.07565
    R8        2.37010  -0.00002   0.00000  -0.00004  -0.00004   2.37006
    R9        2.37138  -0.00007   0.00000  -0.00010  -0.00010   2.37128
    A1        1.95272   0.00011   0.00000   0.00094   0.00094   1.95366
    A2        1.92696  -0.00003   0.00000  -0.00016  -0.00016   1.92680
    A3        1.92696  -0.00003   0.00000  -0.00016  -0.00016   1.92680
    A4        1.89813  -0.00004   0.00000  -0.00034  -0.00034   1.89779
    A5        1.89813  -0.00004   0.00000  -0.00034  -0.00034   1.89779
    A6        1.85815   0.00002   0.00000  -0.00000  -0.00000   1.85815
    A7        2.00036   0.00005   0.00000  -0.00018  -0.00018   2.00018
    A8        1.93314   0.00001   0.00000   0.00047   0.00047   1.93361
    A9        1.93314   0.00001   0.00000   0.00047   0.00047   1.93361
   A10        1.87252  -0.00006   0.00000  -0.00092  -0.00092   1.87161
   A11        1.87252  -0.00006   0.00000  -0.00092  -0.00092   1.87161
   A12        1.84417   0.00005   0.00000   0.00112   0.00112   1.84529
   A13        2.03220   0.00009   0.00000   0.00038   0.00038   2.03258
   A14        1.99995   0.00003   0.00000  -0.00006  -0.00006   1.99989
   A15        2.25103  -0.00012   0.00000  -0.00032  -0.00032   2.25071
    D1        3.14159  -0.00000   0.00000   0.00000   0.00000   3.14159
    D2        1.02017   0.00004   0.00000   0.00098   0.00098   1.02115
    D3       -1.02017  -0.00004   0.00000  -0.00098  -0.00098  -1.02115
    D4        1.02499  -0.00001   0.00000  -0.00010  -0.00010   1.02489
    D5       -1.09643   0.00003   0.00000   0.00088   0.00088  -1.09555
    D6       -3.13678  -0.00004   0.00000  -0.00108  -0.00108  -3.13786
    D7       -1.02499   0.00001   0.00000   0.00010   0.00010  -1.02489
    D8        3.13678   0.00004   0.00000   0.00108   0.00108   3.13786
    D9        1.09643  -0.00003   0.00000  -0.00088  -0.00088   1.09555
   D10       -0.00000   0.00000   0.00000   0.00000   0.00000   0.00000
   D11        3.14159   0.00000   0.00000   0.00000   0.00000   3.14159
   D12        2.15425   0.00000   0.00000  -0.00021  -0.00021   2.15404
   D13       -0.98734   0.00000   0.00000  -0.00021  -0.00021  -0.98755
   D14       -2.15425  -0.00000   0.00000   0.00021   0.00021  -2.15404
   D15        0.98734  -0.00000   0.00000   0.00021   0.00021   0.98755
         Item               Value     Threshold  Converged?
 Maximum Force            0.000120     0.000450     YES
 RMS     Force            0.000055     0.000300     YES
 Maximum Displacement     0.001648     0.001800     YES
 RMS     Displacement     0.000483     0.001200     YES
 Predicted change in Energy=-4.096834D-07
 Optimization completed.
    -- Stationary point found.
                           ----------------------------
                           !   Optimized Parameters   !
                           ! (Angstroms and Degrees)  !
 --------------------------                            --------------------------
 ! Name  Definition              Value          Derivative Info.                !
 --------------------------------------------------------------------------------
 ! R1    R(1,2)                  1.5252         -DE/DX =   -0.0001              !
 ! R2    R(1,6)                  1.0998         -DE/DX =    0.0                 !
 ! R3    R(1,7)                  1.0947         -DE/DX =   -0.0001              !
 ! R4    R(1,8)                  1.0947         -DE/DX =   -0.0001              !
 ! R5    R(2,3)                  1.5617         -DE/DX =    0.0001              !
 ! R6    R(2,9)                  1.0986         -DE/DX =   -0.0001              !
 ! R7    R(2,10)                 1.0986         -DE/DX =   -0.0001              !
 ! R8    R(3,4)                  1.2542         -DE/DX =    0.0                 !
 ! R9    R(3,5)                  1.2549         -DE/DX =   -0.0001              !
 ! A1    A(2,1,6)              111.8828         -DE/DX =    0.0001              !
 ! A2    A(2,1,7)              110.4066         -DE/DX =    0.0                 !
 ! A3    A(2,1,8)              110.4066         -DE/DX =    0.0                 !
 ! A4    A(6,1,7)              108.7548         -DE/DX =    0.0                 !
 ! A5    A(6,1,8)              108.7548         -DE/DX =    0.0                 !
 ! A6    A(7,1,8)              106.4644         -DE/DX =    0.0                 !
 ! A7    A(1,2,3)              114.6123         -DE/DX =    0.0                 !
 ! A8    A(1,2,9)              110.7607         -DE/DX =    0.0                 !
 ! A9    A(1,2,10)             110.7607         -DE/DX =    0.0                 !
 ! A10   A(3,2,9)              107.2877         -DE/DX =   -0.0001              !
 ! A11   A(3,2,10)             107.2877         -DE/DX =   -0.0001              !
 ! A12   A(9,2,10)             105.6633         -DE/DX =    0.0                 !
 ! A13   A(2,3,4)              116.4365         -DE/DX =    0.0001              !
 ! A14   A(2,3,5)              114.5888         -DE/DX =    0.0                 !
 ! A15   A(4,3,5)              128.9748         -DE/DX =   -0.0001              !
 ! D1    D(6,1,2,3)            180.0            -DE/DX =    0.0                 !
 ! D2    D(6,1,2,9)             58.4515         -DE/DX =    0.0                 !
 ! D3    D(6,1,2,10)           -58.4515         -DE/DX =    0.0                 !
 ! D4    D(7,1,2,3)             58.7275         -DE/DX =    0.0                 !
 ! D5    D(7,1,2,9)            -62.821          -DE/DX =    0.0                 !
 ! D6    D(7,1,2,10)          -179.7241         -DE/DX =    0.0                 !
 ! D7    D(8,1,2,3)            -58.7275         -DE/DX =    0.0                 !
 ! D8    D(8,1,2,9)            179.7241         -DE/DX =    0.0                 !
 ! D9    D(8,1,2,10)            62.821          -DE/DX =    0.0                 !
 ! D10   D(1,2,3,4)              0.0            -DE/DX =    0.0                 !
 ! D11   D(1,2,3,5)            180.0            -DE/DX =    0.0                 !
 ! D12   D(9,2,3,4)            123.4294         -DE/DX =    0.0                 !
 ! D13   D(9,2,3,5)            -56.5706         -DE/DX =    0.0                 !
 ! D14   D(10,2,3,4)          -123.4294         -DE/DX =    0.0                 !
 ! D15   D(10,2,3,5)            56.5706         -DE/DX =    0.0                 !
 --------------------------------------------------------------------------------
 GradGradGradGradGradGradGradGradGradGradGradGradGradGradGradGradGradGrad


 Test job not archived.
 1\1\GINC-R3722\Freq\RM062X\Gen\C3H5O2(1-)\ROOT\20-Feb-2019\0\\#N Geom=
 AllCheck Guess=TCheck SCRF=Check Test GenChk RM062X/ChkBas Freq\\Prop.
 M062X_6-31pGd_opt\\-1,1\C,-5.3604901217,-2.1792620695,-0.0010785416\C,
 -3.9877001921,-1.5147220948,-0.0062695987\C,-2.7836464279,-2.509262949
 ,-0.0036345436\O,-3.0683394909,-3.7307125802,0.0023800142\O,-1.6543796
 102,-1.96203547,-0.0079073515\H,-6.1740803926,-1.4393181008,-0.0031685
 936\H,-5.4705963512,-2.8209328535,0.8789185652\H,-5.473359375,-2.82892
 45607,-0.8748398729\H,-3.8700120765,-0.8573002989,0.8659698109\H,-3.87
 27704402,-0.8652785273,-0.8848307535\\Version=ES64L-G09RevE.01\State=1
 -A'\HF=-267.7291889\RMSD=1.055e-09\RMSF=8.412e-05\ZeroPoint=0.0779122\
 Thermal=0.0834331\Dipole=-2.0260163,0.9674059,-0.0012164\DipoleDeriv=0
 .0175799,-0.1074545,0.0006095,-0.1045222,0.1173431,0.0000566,0.0005961
 ,0.0000612,0.0936165,-0.1215342,0.2856994,-0.0007509,0.3483068,-0.0905
 613,0.0009038,-0.0010362,0.0010024,0.2281934,1.9710851,0.3330025,-0.00
 44646,0.3221577,1.8809911,-0.0086212,-0.0044152,-0.0086383,0.1005152,-
 0.8956075,-0.0608576,0.0008897,-0.2735767,-1.7232305,0.0059737,0.00185
 91,0.0056386,-0.50692,-1.7615447,-0.4831351,0.0041089,-0.3001779,-0.94
 43436,0.0022657,0.0032752,0.002554,-0.5509349,-0.2377677,0.1342837,-0.
 0001526,0.1997326,-0.0859775,0.0003221,-0.0004509,0.0004252,0.053759,0
 .0365581,-0.0210577,0.0096662,-0.0599356,-0.0132226,0.0939561,0.051890
 6,0.1031914,-0.0989521,0.036364,-0.0214732,-0.009896,-0.0607049,-0.015
 0252,-0.09453,-0.0517644,-0.1038884,-0.0969554,-0.0226093,-0.0298604,-
 0.0239191,-0.0358237,-0.0641919,-0.1074259,-0.0032263,-0.1573641,-0.10
 9913,-0.0225237,-0.0291471,0.0239088,-0.0354561,-0.0617817,0.1070991,0
 .003272,0.1570181,-0.1124088\Polar=56.9862657,1.4678855,54.0142717,-0.
 0360895,-0.0738069,38.3254225\PG=CS [SG(C3H1O2),X(H4)]\NImag=0\\0.4976
 0414,-0.03167576,0.55704038,0.00027004,0.00014264,0.57738892,-0.182097
 81,-0.05252266,0.00040054,0.46065021,-0.05522344,-0.11043483,0.0002267
 0,0.05304425,0.51893298,0.00041285,0.00022244,-0.07978126,-0.00008994,
 0.00008983,0.55698522,-0.02286959,0.00955044,-0.00000922,-0.10409854,0
 .03190534,-0.00012222,0.71785264,-0.00738332,0.01717319,-0.00007162,0.
 02931661,-0.09263713,-0.00003142,0.19938062,0.81293437,0.00006795,-0.0
 0009830,-0.00109630,-0.00011043,-0.00003549,-0.08939513,-0.00165156,-0
 .00289645,0.24626476,-0.00147147,0.00195341,-0.00000933,0.00499414,0.0
 2293762,-0.00007574,-0.11961612,-0.08312007,0.00044572,0.13706432,-0.0
 0353780,-0.00247169,0.00000888,0.00770134,-0.05122603,0.00032731,-0.06
 567149,-0.53273823,0.00217966,0.12676922,0.64587102,0.00001569,0.00000
 023,-0.00174602,-0.00000631,0.00030330,0.02326174,0.00036620,0.0022071
 5,-0.07713431,-0.00075231,-0.00302340,0.02623680,-0.00566330,0.0093505
 5,-0.00002989,-0.05732944,-0.00850648,0.00015807,-0.47869991,-0.147969
 22,0.00130224,-0.01856148,-0.07659408,0.00042143,0.56570776,0.00187747
 ,-0.00169140,0.00001574,0.01492127,0.01008158,0.00001438,-0.16344004,-
 0.17064090,0.00067000,-0.08002191,-0.05491875,0.00050115,0.22479161,0.
 21067255,0.00000417,0.00000396,0.00241109,0.00005131,0.00005129,0.0183
 9660,0.00137274,0.00064563,-0.08012282,0.00043705,0.00049575,0.0273880
 6,-0.00186915,-0.00117976,0.02950496,-0.18223842,0.12697489,-0.0003724
 0,-0.02085894,0.02413588,-0.00007849,0.00125265,-0.00707397,0.00003126
 ,-0.00001875,0.00109049,-0.00000364,-0.00525527,0.00057717,0.00000569,
 0.20129385,0.12588454,-0.16571134,0.00032281,-0.01394672,0.01207935,-0
 .00003703,-0.00189783,-0.00544127,0.00003068,0.00247335,0.00184283,-0.
 00000854,-0.00051382,0.00135275,-0.00000525,-0.14043213,0.18071823,-0.
 00036743,0.00032109,-0.05134921,0.00009505,-0.00009703,-0.00086818,0.0
 0000767,0.00003883,0.00063399,-0.00000994,-0.00000636,0.00082375,0.000
 01066,-0.00000697,0.00002374,0.00039770,-0.00038563,0.04754114,-0.0474
 1732,-0.01299301,0.01919873,-0.00307552,-0.01787932,0.02603736,-0.0001
 3331,-0.00292253,0.00074407,0.00055052,0.00174311,-0.00099609,0.000602
 47,0.00109005,-0.00031346,0.00193080,0.01309642,-0.02089618,0.05234454
 ,-0.01410340,-0.13792063,0.12821491,-0.00263335,-0.00899154,0.01302292
 ,0.00094428,-0.00107710,-0.00026786,0.00059860,0.00063714,-0.00027033,
 -0.00021853,0.00030087,-0.00024200,-0.00233925,-0.01288741,0.01732756,
 0.01832047,0.14903977,0.02083855,0.12692110,-0.22567028,0.00038053,-0.
 00102923,0.00046858,-0.00024415,0.00316032,-0.00002021,-0.00144507,-0.
 00176201,0.00072570,0.00006959,-0.00099679,-0.00003548,-0.00107506,-0.
 00197493,0.00161020,-0.02096451,-0.14045623,0.24260219,-0.04754484,-0.
 01357108,-0.01963528,-0.00315843,-0.01811235,-0.02586175,-0.00013486,-
 0.00293911,-0.00071696,0.00055818,0.00175767,0.00098064,0.00060322,0.0
 0109599,0.00030147,0.00199987,0.01329268,0.02077492,-0.00033233,0.0018
 8647,0.00214842,0.05247801,-0.01470043,-0.14025263,-0.12894745,-0.0026
 7754,-0.00909976,-0.01292696,0.00094733,-0.00110334,0.00027476,0.00061
 260,0.00065563,0.00026903,-0.00021841,0.00031212,0.00023952,-0.0023837
 4,-0.01302628,-0.01718704,0.00191789,0.01173257,0.01615078,0.01895728,
 0.15160703,-0.02126490,-0.12765717,-0.22321075,-0.00034473,0.00117352,
 0.00065971,0.00023593,-0.00314121,0.00000758,0.00144005,0.00175710,0.0
 0069955,-0.00006963,0.00099018,-0.00004748,0.00109557,0.00206644,0.001
 68000,-0.00223441,-0.01646530,-0.02212012,0.02138968,0.14122622,0.2399
 0147,-0.00418986,-0.01864797,-0.02558557,-0.04757076,-0.01642064,-0.01
 692221,0.00325071,0.01145430,0.02143583,-0.00175213,0.00335886,-0.0026
 6145,-0.00070335,-0.00045650,-0.00280897,0.00094555,0.00102130,-0.0001
 4199,0.00147608,0.00048753,0.00049429,-0.00594469,-0.00293863,0.000253
 26,0.05464192,-0.00058234,-0.00790802,-0.01083444,-0.01689337,-0.13549
 223,-0.12758566,-0.00591121,-0.01332655,-0.02061622,0.00390893,-0.0038
 0989,0.00343809,-0.00004622,0.00228794,0.00354589,-0.00027802,0.000538
 59,0.00033674,0.00029878,-0.00007063,0.00000525,-0.00267022,-0.0007566
 3,0.00004845,0.02015278,0.14670562,0.00083056,0.00162356,0.00160857,-0
 .02022062,-0.12324429,-0.21366579,-0.00421345,0.00059462,0.00049579,0.
 00106901,0.00011110,-0.00014124,0.00197707,0.00134973,0.00121964,-0.00
 085146,0.00009797,-0.00004817,-0.00043082,-0.00020906,0.00080650,0.000
 19289,0.00068565,0.00162525,0.02383679,0.13548773,0.23099613,-0.004111
 53,-0.01841882,0.02577237,-0.04745491,-0.01588086,0.01654208,0.0031963
 3,0.01125669,-0.02154812,-0.00174720,0.00338268,0.00263584,-0.00070070
 ,-0.00043512,0.00281915,0.00094866,0.00102221,0.00012954,-0.00594594,-
 0.00294282,-0.00020259,0.00147586,0.00048366,-0.00050082,-0.00015347,0
 .00202090,-0.00218996,0.05449289,-0.00055552,-0.00782302,0.01092184,-0
 .01630984,-0.13321238,0.12690419,-0.00580742,-0.01314302,0.02075924,0.
 00388825,-0.00384204,-0.00341667,-0.00007540,0.00224324,-0.00355504,-0
 .00027133,0.00053457,-0.00034120,-0.00267187,-0.00076304,-0.00001826,0
 .00030268,-0.00006871,0.00000178,0.00198897,0.01183181,-0.01649700,0.0
 1951148,0.14424259,-0.00080748,-0.00147956,0.00144523,0.01984460,0.122
 56140,-0.21606149,0.00425805,-0.00050585,0.00036663,-0.00109943,-0.000
 08801,-0.00011403,-0.00197039,-0.00135767,0.00126169,0.00085083,-0.000
 10652,-0.00004726,-0.00014468,-0.00065461,0.00163291,0.00042597,0.0002
 1550,0.00080480,0.00210002,0.01617417,-0.02289669,-0.02345749,-0.13475
 887,0.23360819\\-0.00014162,0.00000538,0.00000020,0.00024021,-0.000240
 43,0.00000072,-0.00003743,-0.00003058,0.00000020,-0.00009257,-0.000003
 14,0.00000016,0.00003541,0.00008663,-0.00000045,0.00008631,0.00002401,
 -0.00000025,-0.00000632,-0.00005262,0.00004465,-0.00000646,-0.00005302
 ,-0.00004415,-0.00003872,0.00013201,0.00002782,-0.00003881,0.00013176,
 -0.00002890\\\@


 BETTER TO HUNT IN FIELDS, FOR HEALTH UNBOUGHT
 THAN FEE THE DOCTOR FOR A NAUSEOUS DRAUGHT.
 THE WISE, FOR CURE, ON EXERCISE DEPEND;
 GOD NEVER MADE HIS WORK FOR MAN TO MEND.
     -- JOHN DRYDEN (1631-1700)
 Job cpu time:       0 days  0 hours  4 minutes  4.4 seconds.
 File lengths (MBytes):  RWF=     15 Int=      0 D2E=      0 Chk=      2 Scr=      1
 Normal termination of Gaussian 09 at Wed Feb 20 09:19:06 2019.
WARNING: pbs_rusage is deprecated and values produced may not be accurate


=============================================================================
                                     Resource usage:
                                       CPU time:              00:00:00
   JobId:    5914350.r-man2            Elapsed time:          00:00:51
   Project:             q95            Requested time:        10:00:00
   Service Units:      0.06 
                                       Max physical memory:        0MB
                                       Max virtual memory:         0MB
                                       Requested memory:           0MB

                                       Number of cpus:               4

                                       Max jobfs disk use:       0.0GB
                                       Requested jobfs:          5.0GB
=============================================================================

