 Entering Gaussian System, Link 0=/apps/gaussian/g09e01/g09/g09
 AtFile(1): /home/507/hio507/Basis/6-31pGd.gbs
 Initial command:
 /apps/gaussian/g09e01/g09/l1.exe "/jobfs/local/6004323.r-man2/Gau-21695.inp" -scrdir="/jobfs/local/6004323.r-man2/"
 Entering Link 1 = /apps/gaussian/g09e01/g09/l1.exe PID=     21696.
  
 Copyright (c) 1988,1990,1992,1993,1995,1998,2003,2009,2015,
            Gaussian, Inc.  All Rights Reserved.
  
 This is part of the Gaussian(R) 09 program.  It is based on
 the Gaussian(R) 03 system (copyright 2003, Gaussian, Inc.),
 the Gaussian(R) 98 system (copyright 1998, Gaussian, Inc.),
 the Gaussian(R) 94 system (copyright 1995, Gaussian, Inc.),
 the Gaussian 92(TM) system (copyright 1992, Gaussian, Inc.),
 the Gaussian 90(TM) system (copyright 1990, Gaussian, Inc.),
 the Gaussian 88(TM) system (copyright 1988, Gaussian, Inc.),
 the Gaussian 86(TM) system (copyright 1986, Carnegie Mellon
 University), and the Gaussian 82(TM) system (copyright 1983,
 Carnegie Mellon University). Gaussian is a federally registered
 trademark of Gaussian, Inc.
  
 This software contains proprietary and confidential information,
 including trade secrets, belonging to Gaussian, Inc.
  
 This software is provided under written license and may be
 used, copied, transmitted, or stored only in accord with that
 written license.
  
 The following legend is applicable only to US Government
 contracts under FAR:
  
                    RESTRICTED RIGHTS LEGEND
  
 Use, reproduction and disclosure by the US Government is
 subject to restrictions as set forth in subparagraphs (a)
 and (c) of the Commercial Computer Software - Restricted
 Rights clause in FAR 52.227-19.
  
 Gaussian, Inc.
 340 Quinnipiac St., Bldg. 40, Wallingford CT 06492
  
  
 ---------------------------------------------------------------
 Warning -- This program may not be used in any manner that
 competes with the business of Gaussian, Inc. or will provide
 assistance to any competitor of Gaussian, Inc.  The licensee
 of this program is prohibited from giving any competitor of
 Gaussian, Inc. access to this program.  By using this program,
 the user acknowledges that Gaussian, Inc. is engaged in the
 business of creating and licensing software in the field of
 computational chemistry and represents and warrants to the
 licensee that it is not a competitor of Gaussian, Inc. and that
 it will not use this program in any manner prohibited above.
 ---------------------------------------------------------------
  

 Cite this work as:
 Gaussian 09, Revision E.01,
 M. J. Frisch, G. W. Trucks, H. B. Schlegel, G. E. Scuseria, 
 M. A. Robb, J. R. Cheeseman, G. Scalmani, V. Barone, B. Mennucci, 
 G. A. Petersson, H. Nakatsuji, M. Caricato, X. Li, H. P. Hratchian, 
 A. F. Izmaylov, J. Bloino, G. Zheng, J. L. Sonnenberg, M. Hada, 
 M. Ehara, K. Toyota, R. Fukuda, J. Hasegawa, M. Ishida, T. Nakajima, 
 Y. Honda, O. Kitao, H. Nakai, T. Vreven, J. A. Montgomery, Jr., 
 J. E. Peralta, F. Ogliaro, M. Bearpark, J. J. Heyd, E. Brothers, 
 K. N. Kudin, V. N. Staroverov, T. Keith, R. Kobayashi, J. Normand, 
 K. Raghavachari, A. Rendell, J. C. Burant, S. S. Iyengar, J. Tomasi, 
 M. Cossi, N. Rega, J. M. Millam, M. Klene, J. E. Knox, J. B. Cross, 
 V. Bakken, C. Adamo, J. Jaramillo, R. Gomperts, R. E. Stratmann, 
 O. Yazyev, A. J. Austin, R. Cammi, C. Pomelli, J. W. Ochterski, 
 R. L. Martin, K. Morokuma, V. G. Zakrzewski, G. A. Voth, 
 P. Salvador, J. J. Dannenberg, S. Dapprich, A. D. Daniels, 
 O. Farkas, J. B. Foresman, J. V. Ortiz, J. Cioslowski, 
 and D. J. Fox, Gaussian, Inc., Wallingford CT, 2013.
 
 ******************************************
 Gaussian 09:  ES64L-G09RevE.01 30-Nov-2015
                22-Feb-2019 
 ******************************************
 %chk=3TMF4Nitro.M062X_6-31pGd_opt_Pentadecane.chk
 %mem=196608000
 %nproc=4
 Will use up to    4 processors via shared memory.
 ----------------------------------------------------------------------
 # M062X/Gen 6D SCF=Tight INT(grid=ultrafine) OPT IOP(2/17=4) SCRF=(SMD
 ,Solvent=n-Pentadecane) maxdisk=2684354560
 ----------------------------------------------------------------------
 1/14=-1,18=20,19=15,26=4,38=1/1,3;
 2/9=110,12=2,17=4,18=5,40=1/2;
 3/5=7,8=2,11=2,16=1,25=1,30=1,70=32201,71=1,72=151,74=-55,75=-5/1,2,3;
 4//1;
 5/5=2,32=2,38=5,53=151/2;
 6/7=2,8=2,9=2,10=2,28=1/1;
 7//1,2,3,16;
 1/14=-1,18=20,19=15,26=4/3(2);
 2/9=110,17=4/2;
 99//99;
 2/9=110,17=4/2;
 3/5=7,6=1,8=2,11=2,16=1,25=1,30=1,70=32205,71=1,72=151,74=-55,75=-5,82=7/1,2,3;
 4/5=5,16=3,69=1/1;
 5/5=2,32=2,38=5,53=151/2;
 7//1,2,3,16;
 1/14=-1,18=20,19=15,26=4/3(-5);
 2/9=110,17=4/2;
 6/7=2,8=2,9=2,10=2,19=2,28=1/1;
 99/9=1/99;
 ----------------------------------------
 3TMF4Nitro.M062X_6-31pGd_opt_Pentadecane
 ----------------------------------------
 Symbolic Z-matrix:
 Charge =  0 Multiplicity = 1
 C                    -2.03683   1.83126  -0.08111 
 C                    -0.67396   1.14733  -0.03117 
 C                     0.4666    2.17222  -0.04985 
 N                     1.75849   1.50968  -0.00004 
 C                     2.93005   2.20709  -0.00445 
 O                     2.89806   3.42626  -0.05236 
 N                     4.11671   1.52508   0.04624 
 C                     5.4559    2.05651   0.05278 
 C                     5.77938   3.43207  -0.00221 
 C                     6.51162   1.13946   0.11845 
 C                     7.83206   1.56439   0.13018 
 C                     8.17724   2.92102   0.07703 
 C                     7.1222    3.88695   0.00839 
 H                    -2.83858   1.06303  -0.0661 
 H                    -2.13494   2.42959  -1.01184 
 H                    -2.16677   2.49794   0.79787 
 H                    -0.57802   0.47079  -0.90831 
 H                    -0.61017   0.5395    0.89768 
 H                     0.36664   2.8471    0.82886 
 H                     0.40011   2.77737  -0.98095 
 H                     1.78953   0.47869   0.04068 
 H                     4.04375   0.49628   0.08649 
 H                     5.00713   4.17161  -0.05422 
 H                     6.31593   0.07581   0.1621 
 C                     7.38258   5.38625  -0.05389 
 F                     6.2127    6.1246   -0.11532 
 F                     8.1205    5.68823  -1.18448 
 F                     8.06697   5.79159   1.07803 
 N                     9.5774    3.24382   0.09552 
 O                     10.38738   2.36721   0.15457 
 O                     9.96235   4.37113   0.05384 
 H                     8.58371   0.85897   0.1796 
 

 GradGradGradGradGradGradGradGradGradGradGradGradGradGradGradGradGradGrad
 Berny optimization.
 Initialization pass.
                           ----------------------------
                           !    Initial Parameters    !
                           ! (Angstroms and Degrees)  !
 --------------------------                            --------------------------
 ! Name  Definition              Value          Derivative Info.                !
 --------------------------------------------------------------------------------
 ! R1    R(1,2)                  1.5257         estimate D2E/DX2                !
 ! R2    R(1,14)                 1.1105         estimate D2E/DX2                !
 ! R3    R(1,15)                 1.1108         estimate D2E/DX2                !
 ! R4    R(1,16)                 1.1108         estimate D2E/DX2                !
 ! R5    R(2,3)                  1.5335         estimate D2E/DX2                !
 ! R6    R(2,17)                 1.1119         estimate D2E/DX2                !
 ! R7    R(2,18)                 1.1119         estimate D2E/DX2                !
 ! R8    R(3,4)                  1.4527         estimate D2E/DX2                !
 ! R9    R(3,19)                 1.1125         estimate D2E/DX2                !
 ! R10   R(3,20)                 1.1125         estimate D2E/DX2                !
 ! R11   R(4,5)                  1.3634         estimate D2E/DX2                !
 ! R12   R(4,21)                 1.0323         estimate D2E/DX2                !
 ! R13   R(5,6)                  1.2205         estimate D2E/DX2                !
 ! R14   R(5,7)                  1.3696         estimate D2E/DX2                !
 ! R15   R(7,8)                  1.4408         estimate D2E/DX2                !
 ! R16   R(7,22)                 1.0322         estimate D2E/DX2                !
 ! R17   R(8,9)                  1.4142         estimate D2E/DX2                !
 ! R18   R(8,10)                 1.3999         estimate D2E/DX2                !
 ! R19   R(9,13)                 1.4178         estimate D2E/DX2                !
 ! R20   R(9,23)                 1.0705         estimate D2E/DX2                !
 ! R21   R(10,11)                1.3872         estimate D2E/DX2                !
 ! R22   R(10,24)                1.0824         estimate D2E/DX2                !
 ! R23   R(11,12)                1.4009         estimate D2E/DX2                !
 ! R24   R(11,32)                1.032          estimate D2E/DX2                !
 ! R25   R(12,13)                1.4321         estimate D2E/DX2                !
 ! R26   R(12,29)                1.437          estimate D2E/DX2                !
 ! R27   R(13,25)                1.523          estimate D2E/DX2                !
 ! R28   R(25,26)                1.3848         estimate D2E/DX2                !
 ! R29   R(25,27)                1.3835         estimate D2E/DX2                !
 ! R30   R(25,28)                1.3834         estimate D2E/DX2                !
 ! R31   R(29,30)                1.195          estimate D2E/DX2                !
 ! R32   R(29,31)                1.192          estimate D2E/DX2                !
 ! A1    A(2,1,14)             109.5345         estimate D2E/DX2                !
 ! A2    A(2,1,15)             110.3523         estimate D2E/DX2                !
 ! A3    A(2,1,16)             110.3426         estimate D2E/DX2                !
 ! A4    A(14,1,15)            108.6743         estimate D2E/DX2                !
 ! A5    A(14,1,16)            108.6652         estimate D2E/DX2                !
 ! A6    A(15,1,16)            109.2322         estimate D2E/DX2                !
 ! A7    A(1,2,3)              111.3705         estimate D2E/DX2                !
 ! A8    A(1,2,17)             108.9062         estimate D2E/DX2                !
 ! A9    A(1,2,18)             108.8841         estimate D2E/DX2                !
 ! A10   A(3,2,17)             109.4431         estimate D2E/DX2                !
 ! A11   A(3,2,18)             109.4425         estimate D2E/DX2                !
 ! A12   A(17,2,18)            108.7499         estimate D2E/DX2                !
 ! A13   A(2,3,4)              110.8667         estimate D2E/DX2                !
 ! A14   A(2,3,19)             109.2077         estimate D2E/DX2                !
 ! A15   A(2,3,20)             109.2261         estimate D2E/DX2                !
 ! A16   A(4,3,19)             109.2382         estimate D2E/DX2                !
 ! A17   A(4,3,20)             109.2649         estimate D2E/DX2                !
 ! A18   A(19,3,20)            109.0098         estimate D2E/DX2                !
 ! A19   A(3,4,5)              122.0558         estimate D2E/DX2                !
 ! A20   A(3,4,21)             118.9206         estimate D2E/DX2                !
 ! A21   A(5,4,21)             119.0236         estimate D2E/DX2                !
 ! A22   A(4,5,6)              119.245          estimate D2E/DX2                !
 ! A23   A(4,5,7)              119.318          estimate D2E/DX2                !
 ! A24   A(6,5,7)              121.437          estimate D2E/DX2                !
 ! A25   A(5,7,8)              128.4487         estimate D2E/DX2                !
 ! A26   A(5,7,22)             115.8826         estimate D2E/DX2                !
 ! A27   A(8,7,22)             115.6686         estimate D2E/DX2                !
 ! A28   A(7,8,9)              124.8351         estimate D2E/DX2                !
 ! A29   A(7,8,10)             117.357          estimate D2E/DX2                !
 ! A30   A(9,8,10)             117.808          estimate D2E/DX2                !
 ! A31   A(8,9,13)             121.8995         estimate D2E/DX2                !
 ! A32   A(8,9,23)             120.5874         estimate D2E/DX2                !
 ! A33   A(13,9,23)            117.5131         estimate D2E/DX2                !
 ! A34   A(8,10,11)            121.1693         estimate D2E/DX2                !
 ! A35   A(8,10,24)            120.6157         estimate D2E/DX2                !
 ! A36   A(11,10,24)           118.215          estimate D2E/DX2                !
 ! A37   A(10,11,12)           122.0652         estimate D2E/DX2                !
 ! A38   A(10,11,32)           118.9676         estimate D2E/DX2                !
 ! A39   A(12,11,32)           118.9672         estimate D2E/DX2                !
 ! A40   A(11,12,13)           118.2608         estimate D2E/DX2                !
 ! A41   A(11,12,29)           117.2027         estimate D2E/DX2                !
 ! A42   A(13,12,29)           124.5366         estimate D2E/DX2                !
 ! A43   A(9,13,12)            118.7972         estimate D2E/DX2                !
 ! A44   A(9,13,25)            118.5191         estimate D2E/DX2                !
 ! A45   A(12,13,25)           122.6837         estimate D2E/DX2                !
 ! A46   A(13,25,26)           112.4747         estimate D2E/DX2                !
 ! A47   A(13,25,27)           109.8457         estimate D2E/DX2                !
 ! A48   A(13,25,28)           109.8493         estimate D2E/DX2                !
 ! A49   A(26,25,27)           107.3364         estimate D2E/DX2                !
 ! A50   A(26,25,28)           107.338          estimate D2E/DX2                !
 ! A51   A(27,25,28)           109.9268         estimate D2E/DX2                !
 ! A52   A(12,29,30)           119.7545         estimate D2E/DX2                !
 ! A53   A(12,29,31)           121.7812         estimate D2E/DX2                !
 ! A54   A(30,29,31)           118.4643         estimate D2E/DX2                !
 ! D1    D(14,1,2,3)          -179.9962         estimate D2E/DX2                !
 ! D2    D(14,1,2,17)           59.2167         estimate D2E/DX2                !
 ! D3    D(14,1,2,18)          -59.2243         estimate D2E/DX2                !
 ! D4    D(15,1,2,3)            60.4015         estimate D2E/DX2                !
 ! D5    D(15,1,2,17)          -60.3856         estimate D2E/DX2                !
 ! D6    D(15,1,2,18)         -178.8266         estimate D2E/DX2                !
 ! D7    D(16,1,2,3)           -60.4111         estimate D2E/DX2                !
 ! D8    D(16,1,2,17)          178.8017         estimate D2E/DX2                !
 ! D9    D(16,1,2,18)           60.3607         estimate D2E/DX2                !
 ! D10   D(1,2,3,4)            179.9185         estimate D2E/DX2                !
 ! D11   D(1,2,3,19)            59.5065         estimate D2E/DX2                !
 ! D12   D(1,2,3,20)           -59.6244         estimate D2E/DX2                !
 ! D13   D(17,2,3,4)           -59.6097         estimate D2E/DX2                !
 ! D14   D(17,2,3,19)          179.9783         estimate D2E/DX2                !
 ! D15   D(17,2,3,20)           60.8474         estimate D2E/DX2                !
 ! D16   D(18,2,3,4)            59.4747         estimate D2E/DX2                !
 ! D17   D(18,2,3,19)          -60.9374         estimate D2E/DX2                !
 ! D18   D(18,2,3,20)          179.9318         estimate D2E/DX2                !
 ! D19   D(2,3,4,5)           -179.953          estimate D2E/DX2                !
 ! D20   D(2,3,4,21)            -0.001          estimate D2E/DX2                !
 ! D21   D(19,3,4,5)           -59.5591         estimate D2E/DX2                !
 ! D22   D(19,3,4,21)          120.3929         estimate D2E/DX2                !
 ! D23   D(20,3,4,5)            59.6129         estimate D2E/DX2                !
 ! D24   D(20,3,4,21)         -120.4351         estimate D2E/DX2                !
 ! D25   D(3,4,5,6)             -0.0399         estimate D2E/DX2                !
 ! D26   D(3,4,5,7)            179.8978         estimate D2E/DX2                !
 ! D27   D(21,4,5,6)          -179.9919         estimate D2E/DX2                !
 ! D28   D(21,4,5,7)            -0.0542         estimate D2E/DX2                !
 ! D29   D(4,5,7,8)           -179.9481         estimate D2E/DX2                !
 ! D30   D(4,5,7,22)            -0.0512         estimate D2E/DX2                !
 ! D31   D(6,5,7,8)             -0.0118         estimate D2E/DX2                !
 ! D32   D(6,5,7,22)           179.8851         estimate D2E/DX2                !
 ! D33   D(5,7,8,9)             -0.3947         estimate D2E/DX2                !
 ! D34   D(5,7,8,10)           179.6091         estimate D2E/DX2                !
 ! D35   D(22,7,8,9)           179.7082         estimate D2E/DX2                !
 ! D36   D(22,7,8,10)           -0.288          estimate D2E/DX2                !
 ! D37   D(7,8,9,13)           179.976          estimate D2E/DX2                !
 ! D38   D(7,8,9,23)            -0.0494         estimate D2E/DX2                !
 ! D39   D(10,8,9,13)           -0.0278         estimate D2E/DX2                !
 ! D40   D(10,8,9,23)          179.9468         estimate D2E/DX2                !
 ! D41   D(7,8,10,11)         -179.9617         estimate D2E/DX2                !
 ! D42   D(7,8,10,24)            0.0034         estimate D2E/DX2                !
 ! D43   D(9,8,10,11)            0.0419         estimate D2E/DX2                !
 ! D44   D(9,8,10,24)         -179.993          estimate D2E/DX2                !
 ! D45   D(8,9,13,12)           -0.0074         estimate D2E/DX2                !
 ! D46   D(8,9,13,25)          179.9916         estimate D2E/DX2                !
 ! D47   D(23,9,13,12)        -179.9828         estimate D2E/DX2                !
 ! D48   D(23,9,13,25)           0.0162         estimate D2E/DX2                !
 ! D49   D(8,10,11,12)          -0.0206         estimate D2E/DX2                !
 ! D50   D(8,10,11,32)         179.9802         estimate D2E/DX2                !
 ! D51   D(24,10,11,12)       -179.9866         estimate D2E/DX2                !
 ! D52   D(24,10,11,32)          0.0143         estimate D2E/DX2                !
 ! D53   D(10,11,12,13)         -0.0158         estimate D2E/DX2                !
 ! D54   D(10,11,12,29)        179.9873         estimate D2E/DX2                !
 ! D55   D(32,11,12,13)        179.9834         estimate D2E/DX2                !
 ! D56   D(32,11,12,29)         -0.0135         estimate D2E/DX2                !
 ! D57   D(11,12,13,9)           0.029          estimate D2E/DX2                !
 ! D58   D(11,12,13,25)       -179.9699         estimate D2E/DX2                !
 ! D59   D(29,12,13,9)        -179.9743         estimate D2E/DX2                !
 ! D60   D(29,12,13,25)          0.0268         estimate D2E/DX2                !
 ! D61   D(11,12,29,30)         -0.0167         estimate D2E/DX2                !
 ! D62   D(11,12,29,31)       -179.9905         estimate D2E/DX2                !
 ! D63   D(13,12,29,30)        179.9866         estimate D2E/DX2                !
 ! D64   D(13,12,29,31)          0.0127         estimate D2E/DX2                !
 ! D65   D(9,13,25,26)          -0.0207         estimate D2E/DX2                !
 ! D66   D(9,13,25,27)        -119.5026         estimate D2E/DX2                !
 ! D67   D(9,13,25,28)         119.4655         estimate D2E/DX2                !
 ! D68   D(12,13,25,26)        179.9782         estimate D2E/DX2                !
 ! D69   D(12,13,25,27)         60.4964         estimate D2E/DX2                !
 ! D70   D(12,13,25,28)        -60.5356         estimate D2E/DX2                !
 --------------------------------------------------------------------------------
 Trust Radius=3.00D-01 FncErr=1.00D-07 GrdErr=1.00D-06
 Number of steps in this run=    166 maximum allowed number of steps=    192.
 GradGradGradGradGradGradGradGradGradGradGradGradGradGradGradGradGradGrad

                          Input orientation:                          
 ---------------------------------------------------------------------
 Center     Atomic      Atomic             Coordinates (Angstroms)
 Number     Number       Type             X           Y           Z
 ---------------------------------------------------------------------
      1          6           0       -2.036830    1.831260   -0.081110
      2          6           0       -0.673960    1.147330   -0.031170
      3          6           0        0.466600    2.172220   -0.049850
      4          7           0        1.758490    1.509680   -0.000040
      5          6           0        2.930050    2.207090   -0.004450
      6          8           0        2.898060    3.426260   -0.052360
      7          7           0        4.116710    1.525080    0.046240
      8          6           0        5.455900    2.056510    0.052780
      9          6           0        5.779380    3.432070   -0.002210
     10          6           0        6.511620    1.139460    0.118450
     11          6           0        7.832060    1.564390    0.130180
     12          6           0        8.177240    2.921020    0.077030
     13          6           0        7.122200    3.886950    0.008390
     14          1           0       -2.838580    1.063030   -0.066100
     15          1           0       -2.134940    2.429590   -1.011840
     16          1           0       -2.166770    2.497940    0.797870
     17          1           0       -0.578020    0.470790   -0.908310
     18          1           0       -0.610170    0.539500    0.897680
     19          1           0        0.366640    2.847100    0.828860
     20          1           0        0.400110    2.777370   -0.980950
     21          1           0        1.789530    0.478690    0.040680
     22          1           0        4.043750    0.496280    0.086490
     23          1           0        5.007130    4.171610   -0.054220
     24          1           0        6.315930    0.075810    0.162100
     25          6           0        7.382580    5.386250   -0.053890
     26          9           0        6.212700    6.124600   -0.115320
     27          9           0        8.120500    5.688230   -1.184480
     28          9           0        8.066970    5.791590    1.078030
     29          7           0        9.577400    3.243820    0.095520
     30          8           0       10.387380    2.367210    0.154570
     31          8           0        9.962350    4.371130    0.053840
     32          1           0        8.583710    0.858970    0.179600
 ---------------------------------------------------------------------
                    Distance matrix (angstroms):
                    1          2          3          4          5
     1  C    0.000000
     2  C    1.525670   0.000000
     3  C    2.526736   1.533501   0.000000
     4  N    3.809782   2.459488   1.452728   0.000000
     5  C    4.981669   3.756686   2.464115   1.363434   0.000000
     6  O    5.186327   4.237133   2.735803   2.230389   1.220530
     7  N    6.162469   4.806163   3.708278   2.358724   1.369624
     8  C    7.497311   6.197487   4.991697   3.738001   2.530982
     9  C    7.978844   6.845909   5.460323   4.456809   3.101494
    10  C    8.578718   7.187142   6.134915   4.768999   3.739329
    11  C    9.874758   8.517767   7.392690   6.075212   4.945795
    12  C   10.273257   9.027814   7.747953   6.572532   5.296163
    13  C    9.387316   8.263607   6.873187   5.866930   4.516217
    14  H    1.110498   2.166542   3.486371   4.619190   5.881306
    15  H    1.110803   2.177238   2.785619   4.126593   5.168991
    16  H    1.110834   2.177139   2.785563   4.125650   5.167774
    17  H    2.159459   1.111884   2.173258   2.713582   4.017245
    18  H    2.159174   1.111885   2.173251   2.712508   4.015950
    19  H    2.763448   2.170649   1.112469   2.100717   2.770395
    20  H    2.764690   2.170884   1.112463   2.101052   2.771167
    21  H    4.060210   2.553630   2.150903   1.032261   2.071277
    22  H    6.227657   4.763874   3.952640   2.501376   2.043396
    23  H    7.422623   6.435960   4.961249   4.200294   2.859384
    24  H    8.538698   7.074183   6.217276   4.780432   4.004282
    25  C   10.067968   9.103669   7.626322   6.830892   5.471245
    26  F    9.299929   8.497434   6.974472   6.414886   5.112237
    27  F   10.920851   9.964558   8.498935   7.703139   6.360155
    28  F   10.913963   9.960087   8.493384   7.700254   6.356756
    29  N   11.701148  10.464306   9.174755   8.009477   6.728452
    30  O   12.437997  11.129953   9.924801   8.672774   7.460744
    31  O   12.265785  11.114459   9.747575   8.688735   7.357969
    32  H   10.668139   9.264558   8.225858   6.858522   5.815082
                    6          7          8          9         10
     6  O    0.000000
     7  N    2.260379   0.000000
     8  C    2.903414   1.440795   0.000000
     9  C    2.881762   2.530500   1.414153   0.000000
    10  C    4.279772   2.426831   1.399942   2.409729   0.000000
    11  C    5.276764   3.716506   2.427820   2.778354   1.387179
    12  C    5.304880   4.293891   2.855461   2.452995   2.439254
    13  C    4.249622   3.822673   2.475689   1.417813   2.816669
    14  H    6.204360   6.971526   8.354612   8.937878   9.352333
    15  H    5.219678   6.404748   7.674207   8.041193   8.815043
    16  H    5.218924   6.402619   7.671709   8.040773   8.810308
    17  H    4.642261   4.905424   6.312400   7.071544   7.194745
    18  H    4.641512   4.903031   6.309705   7.071288   7.189370
    19  H    2.742273   4.052562   5.208445   5.507324   6.417281
    20  H    2.742826   4.054191   5.210494   5.506642   6.421992
    21  H    3.150502   2.551613   3.991482   4.964191   4.768731
    22  H    3.149074   1.032169   2.104667   3.411619   2.550507
    23  H    2.236901   2.794112   2.164831   1.070511   3.389283
    24  H    4.790965   2.636357   2.162123   3.402847   1.082382
    25  C    4.894127   5.058119   3.848460   2.528189   4.338606
    26  F    4.274557   5.057159   4.141299   2.729520   4.999562
    27  F    5.802765   5.905660   4.671220   3.459604   4.997742
    28  F    5.795705   5.905273   4.671150   3.459382   4.998222
    29  N    6.683467   5.725001   4.289323   3.803938   3.718584
    30  O    7.566659   6.327892   4.942306   4.732037   4.065734
    31  O    7.127991   6.501659   5.066119   4.287448   4.728150
    32  H    6.242708   4.518360   3.351624   3.810271   2.091882
                   11         12         13         14         15
    11  C    0.000000
    12  C    1.400864   0.000000
    13  C    2.431670   1.432076   0.000000
    14  H   10.684215  11.172328  10.353609   0.000000
    15  H   10.069452  10.381146   9.426527   1.804721   0.000000
    16  H   10.064488  10.377724   9.425370   1.804644   1.811280
    17  H    8.544230   9.144895   8.473717   2.483988   2.504319
    18  H    8.538776   9.141317   8.472650   2.483700   3.089277
    19  H    7.606970   7.847049   6.884188   3.775883   3.133751
    20  H    7.611820   7.850077   6.884508   3.776907   2.558981
    21  H    6.139945   6.838796   6.328874   4.666075   4.507247
    22  H    3.936250   4.792201   4.580349   6.907312   6.566599
    23  H    3.848614   3.410396   2.135058   8.439110   7.413557
    24  H    2.124980   3.401019   3.898524   9.210414   8.850741
    25  C    3.852600   2.593450   1.523016  11.097860  10.012127
    26  F    4.845422   3.762890   2.418589  10.370515   9.172783
    27  F    4.337924   3.041723   2.379948  11.947581  10.762090
    28  F    4.338528   3.042093   2.379994  11.941496  10.943015
    29  N    2.422374   1.437007   2.539530  12.607082  11.792715
    30  O    2.678577   2.279789   3.604494  13.291937  12.576681
    31  O    3.524451   2.299994   2.881484  13.222016  12.298361
    32  H    1.032007   2.104231   3.366599  11.426754  10.898433
                   16         17         18         19         20
    16  H    0.000000
    17  H    3.089420   0.000000
    18  H    2.503688   1.807583   0.000000
    19  H    2.557546   3.091438   2.506773   0.000000
    20  H    3.135467   2.506457   3.091598   1.811462   0.000000
    21  H    4.505887   2.550674   2.548864   2.873188   2.873699
    22  H    6.563784   4.727688   4.724285   4.427031   4.429324
    23  H    7.415664   6.754216   6.756656   4.905946   4.901772
    24  H    8.844609   6.987727   6.980469   6.596868   6.603175
    25  C   10.012887   9.394835   9.395772   7.513318   7.511364
    26  F    9.176170   8.871769   8.875307   6.768301   6.763096
    27  F   10.951511  10.147029  10.347435   8.499877   8.253421
    28  F   10.754350  10.343709  10.144444   8.247860   8.491505
    29  N   11.788773  10.574967  10.570875   9.248420   9.251974
    30  O   12.571301  11.178825  11.173130  10.054859  10.059980
    31  O   12.295445  11.279973  11.277040   9.746844   9.749220
    32  H   10.892259   9.234258   9.227412   8.479059   8.485190
                   21         22         23         24         25
    21  H    0.000000
    22  H    2.254754   0.000000
    23  H    4.898940   3.802098   0.000000
    24  H    4.545916   2.311993   4.305268   0.000000
    25  C    7.441458   5.922778   2.667979   5.420809   0.000000
    26  F    7.173916   6.035152   2.295932   6.056028   1.384758
    27  F    8.289843   6.722470   3.642897   6.047232   1.383456
    28  F    8.289105   6.723820   3.642656   6.047744   1.383450
    29  N    8.264374   6.178215   4.665896   4.547297   3.070760
    30  O    8.803551   6.614125   5.678604   4.671967   4.264608
    31  O    9.052417   7.074274   4.960412   5.635412   2.774399
    32  H    6.806232   4.555376   4.880592   2.399265   4.689722
                   26         27         28         29         30
    26  F    0.000000
    27  F    2.230072   0.000000
    28  F    2.230089   2.265502   0.000000
    29  N    4.434473   3.120272   3.120554   0.000000
    30  O    5.623057   4.238039   4.238332   1.194989   0.000000
    31  O    4.142843   2.580814   2.580530   1.191953   2.050974
    32  H    5.782346   5.039547   5.040331   2.584956   2.351306
                   31         32
    31  O    0.000000
    32  H    3.775147   0.000000
 Stoichiometry    C11H12F3N3O3
 Framework group  C1[X(C11H12F3N3O3)]
 Deg. of freedom    90
 Full point group                 C1      NOp   1
 Largest Abelian subgroup         C1      NOp   1
 Largest concise Abelian subgroup C1      NOp   1
                         Standard orientation:                         
 ---------------------------------------------------------------------
 Center     Atomic      Atomic             Coordinates (Angstroms)
 Number     Number       Type             X           Y           Z
 ---------------------------------------------------------------------
      1          6           0       -7.502868    0.678758    0.008440
      2          6           0       -6.364170   -0.336597   -0.001087
      3          6           0       -4.996666    0.357338    0.002474
      4          7           0       -3.920950   -0.618983   -0.004730
      5          6           0       -2.608490   -0.249666   -0.002315
      6          8           0       -2.322973    0.936974    0.005412
      7          7           0       -1.639437   -1.217540   -0.007309
      8          6           0       -0.208150   -1.052305   -0.004951
      9          6           0        0.461191    0.193413   -0.004713
     10          6           0        0.573517   -2.213696   -0.002820
     11          6           0        1.959068   -2.146585    0.000319
     12          6           0        2.644459   -0.924841    0.001087
     13          6           0        1.876125    0.283669   -0.001823
     14          1           0       -8.476549    0.144771    0.005661
     15          1           0       -7.450100    1.326881   -0.892135
     16          1           0       -7.447557    1.312491    0.919086
     17          1           0       -6.454858   -0.971119   -0.909626
     18          1           0       -6.452563   -0.984897    0.897902
     19          1           0       -4.910278    0.991224    0.912591
     20          1           0       -4.911596    1.003863   -0.898827
     21          1           0       -4.158545   -1.623508   -0.011143
     22          1           0       -1.976889   -2.192977   -0.011910
     23          1           0       -0.092767    1.109448   -0.007144
     24          1           0        0.108528   -3.191109   -0.003019
     25          6           0        2.516628    1.665455   -0.001969
     26          9           0        1.578327    2.683851   -0.005517
     27          9           0        3.297949    1.820840   -1.133050
     28          9           0        3.292518    1.823683    1.132443
     29          7           0        4.080506   -0.977234    0.004705
     30          8           0        4.635336   -2.035609    0.007203
     31          8           0        4.744805    0.012441    0.005766
     32          1           0        2.501978   -3.024242    0.002133
 ---------------------------------------------------------------------
 Rotational constants (GHZ):      0.7739529      0.1288822      0.1131410
 General basis read from cards:  (6D, 7F)
 There are   404 symmetry adapted cartesian basis functions of A   symmetry.
 There are   404 symmetry adapted basis functions of A   symmetry.
   404 basis functions,   688 primitive gaussians,   404 cartesian basis functions
    75 alpha electrons       75 beta electrons
       nuclear repulsion energy      1571.7560936551 Hartrees.
 NAtoms=   32 NActive=   32 NUniq=   32 SFac= 1.00D+00 NAtFMM=   60 NAOKFM=F Big=F
 Integral buffers will be    131072 words long.
 Raffenetti 2 integral format.
 Two-electron integral symmetry is turned on.
 ------------------------------------------------------------------------------
 Polarizable Continuum Model (PCM)
 =================================
 Model                : PCM (using non-symmetric T matrix).
 Atomic radii         : SMD-Coulomb.
 Polarization charges : Total charges.
 Charge compensation  : None.
 Solution method      : On-the-fly selection.
 Cavity type          : VdW (van der Waals Surface) (Alpha=1.000).
 Cavity algorithm     : GePol (No added spheres)
                        Default sphere list used, NSphG=   32.
                        Lebedev-Laikov grids with approx.  5.0 points / Ang**2.
                        Smoothing algorithm: York/Karplus (Gamma=1.0000).
                        Polarization charges: spherical gaussians, with
                                              point-specific exponents (IZeta= 3).
                        Self-potential: point-specific (ISelfS= 7).
                        Self-field    : sphere-specific E.n sum rule (ISelfD= 2).
 1st derivatives      : Analytical E(r).r(x)/FMM algorithm (CHGder, D1EAlg=3).
                        Cavity 1st derivative terms included.
 Solvent              : n-Pentadecane, Eps=   2.033300 Eps(inf)=   2.049192
 ------------------------------------------------------------------------------
 ------------------------------------------------------------------------------
 Atomic radii for non-electrostatic terms: SMD-CDS.
 ------------------------------------------------------------------------------
 Nuclear repulsion after PCM non-electrostatic terms =     1571.7489924410 Hartrees.
 One-electron integrals computed using PRISM.
 NBasis=   404 RedAO= T EigKep=  1.59D-06  NBF=   404
 NBsUse=   403 1.00D-06 EigRej=  2.90D-07 NBFU=   403
 ExpMin= 4.38D-02 ExpMax= 7.00D+03 ExpMxC= 1.05D+03 IAcc=3 IRadAn=         5 AccDes= 0.00D+00
 Harris functional with IExCor= 1009 and IRadAn=       5 diagonalized for initial guess.
 HarFok:  IExCor= 1009 AccDes= 0.00D+00 IRadAn=         5 IDoV= 1 UseB2=F ITyADJ=14
 ICtDFT=  3500011 ScaDFX=  1.000000  1.000000  1.000000  1.000000
 FoFCou: FMM=F IPFlag=           0 FMFlag=      100000 FMFlg1=           0
         NFxFlg=           0 DoJE=T BraDBF=F KetDBF=T FulRan=T
         wScrn=  0.000000 ICntrl=     500 IOpCl=  0 I1Cent=   200000004 NGrid=           0
         NMat0=    1 NMatS0=      1 NMatT0=    0 NMatD0=    1 NMtDS0=    0 NMtDT0=    0
 Petite list used in FoFCou.
 Requested convergence on RMS density matrix=1.00D-08 within 128 cycles.
 Requested convergence on MAX density matrix=1.00D-06.
 Requested convergence on             energy=1.00D-06.
 No special actions if energy rises.
 Inv3:  Mode=1 IEnd=    20656128.
 Iteration    1 A*A^-1 deviation from unit magnitude is 4.77D-15 for   2614.
 Iteration    1 A*A^-1 deviation from orthogonality  is 2.04D-15 for   1809   1688.
 Iteration    1 A^-1*A deviation from unit magnitude is 4.33D-15 for   2614.
 Iteration    1 A^-1*A deviation from orthogonality  is 1.40D-15 for   1208   1185.
 Error on total polarization charges =  0.01919
 SCF Done:  E(RM062X) =  -1115.38450687     A.U. after   16 cycles
            NFock= 16  Conv=0.51D-08     -V/T= 2.0084
 SMD-CDS (non-electrostatic) energy       (kcal/mol) =      -4.46
 (included in total energy above)

 **********************************************************************

            Population analysis using the SCF density.

 **********************************************************************

 Orbital symmetries:
       Occupied  (A) (A) (A) (A) (A) (A) (A) (A) (A) (A) (A) (A)
                 (A) (A) (A) (A) (A) (A) (A) (A) (A) (A) (A) (A)
                 (A) (A) (A) (A) (A) (A) (A) (A) (A) (A) (A) (A)
                 (A) (A) (A) (A) (A) (A) (A) (A) (A) (A) (A) (A)
                 (A) (A) (A) (A) (A) (A) (A) (A) (A) (A) (A) (A)
                 (A) (A) (A) (A) (A) (A) (A) (A) (A) (A) (A) (A)
                 (A) (A) (A)
       Virtual   (A) (A) (A) (A) (A) (A) (A) (A) (A) (A) (A) (A)
                 (A) (A) (A) (A) (A) (A) (A) (A) (A) (A) (A) (A)
                 (A) (A) (A) (A) (A) (A) (A) (A) (A) (A) (A) (A)
                 (A) (A) (A) (A) (A) (A) (A) (A) (A) (A) (A) (A)
                 (A) (A) (A) (A) (A) (A) (A) (A) (A) (A) (A) (A)
                 (A) (A) (A) (A) (A) (A) (A) (A) (A) (A) (A) (A)
                 (A) (A) (A) (A) (A) (A) (A) (A) (A) (A) (A) (A)
                 (A) (A) (A) (A) (A) (A) (A) (A) (A) (A) (A) (A)
                 (A) (A) (A) (A) (A) (A) (A) (A) (A) (A) (A) (A)
                 (A) (A) (A) (A) (A) (A) (A) (A) (A) (A) (A) (A)
                 (A) (A) (A) (A) (A) (A) (A) (A) (A) (A) (A) (A)
                 (A) (A) (A) (A) (A) (A) (A) (A) (A) (A) (A) (A)
                 (A) (A) (A) (A) (A) (A) (A) (A) (A) (A) (A) (A)
                 (A) (A) (A) (A) (A) (A) (A) (A) (A) (A) (A) (A)
                 (A) (A) (A) (A) (A) (A) (A) (A) (A) (A) (A) (A)
                 (A) (A) (A) (A) (A) (A) (A) (A) (A) (A) (A) (A)
                 (A) (A) (A) (A) (A) (A) (A) (A) (A) (A) (A) (A)
                 (A) (A) (A) (A) (A) (A) (A) (A) (A) (A) (A) (A)
                 (A) (A) (A) (A) (A) (A) (A) (A) (A) (A) (A) (A)
                 (A) (A) (A) (A) (A) (A) (A) (A) (A) (A) (A) (A)
                 (A) (A) (A) (A) (A) (A) (A) (A) (A) (A) (A) (A)
                 (A) (A) (A) (A) (A) (A) (A) (A) (A) (A) (A) (A)
                 (A) (A) (A) (A) (A) (A) (A) (A) (A) (A) (A) (A)
                 (A) (A) (A) (A) (A) (A) (A) (A) (A) (A) (A) (A)
                 (A) (A) (A) (A) (A) (A) (A) (A) (A) (A) (A) (A)
                 (A) (A) (A) (A) (A) (A) (A) (A) (A) (A) (A) (A)
                 (A) (A) (A) (A) (A) (A) (A) (A) (A) (A) (A) (A)
                 (A) (A) (A) (A)
 The electronic state is 1-A.
 Alpha  occ. eigenvalues --  -25.30963 -25.30173 -25.30172 -19.67965 -19.67799
 Alpha  occ. eigenvalues --  -19.61755 -15.02308 -14.83235 -14.80146 -10.83327
 Alpha  occ. eigenvalues --  -10.69799 -10.65479 -10.64055 -10.63052 -10.59686
 Alpha  occ. eigenvalues --  -10.59572 -10.59507 -10.59335 -10.56227 -10.54867
 Alpha  occ. eigenvalues --   -1.44544  -1.40459  -1.36689  -1.36503  -1.19461
 Alpha  occ. eigenvalues --   -1.19376  -1.07241  -1.04120  -1.01208  -0.93055
 Alpha  occ. eigenvalues --   -0.91243  -0.88922  -0.83807  -0.81168  -0.77845
 Alpha  occ. eigenvalues --   -0.74564  -0.71514  -0.69642  -0.69048  -0.68538
 Alpha  occ. eigenvalues --   -0.68093  -0.66330  -0.65562  -0.64898  -0.64270
 Alpha  occ. eigenvalues --   -0.61498  -0.60045  -0.56900  -0.56794  -0.56711
 Alpha  occ. eigenvalues --   -0.55443  -0.55309  -0.54777  -0.53599  -0.53171
 Alpha  occ. eigenvalues --   -0.52204  -0.51375  -0.51309  -0.50842  -0.48761
 Alpha  occ. eigenvalues --   -0.48667  -0.47389  -0.46301  -0.45126  -0.43160
 Alpha  occ. eigenvalues --   -0.41073  -0.40877  -0.40717  -0.39870  -0.38119
 Alpha  occ. eigenvalues --   -0.37267  -0.35539  -0.34952  -0.33148  -0.30711
 Alpha virt. eigenvalues --   -0.06754  -0.02107  -0.00692   0.01909   0.02567
 Alpha virt. eigenvalues --    0.02791   0.03073   0.03588   0.03651   0.04714
 Alpha virt. eigenvalues --    0.04864   0.05395   0.05834   0.06674   0.06947
 Alpha virt. eigenvalues --    0.06958   0.08011   0.08052   0.08619   0.08624
 Alpha virt. eigenvalues --    0.09261   0.09684   0.10199   0.10455   0.11042
 Alpha virt. eigenvalues --    0.12173   0.12242   0.13106   0.13267   0.13522
 Alpha virt. eigenvalues --    0.13776   0.14187   0.14479   0.15266   0.15472
 Alpha virt. eigenvalues --    0.16185   0.16599   0.17400   0.17947   0.18030
 Alpha virt. eigenvalues --    0.18661   0.18892   0.19385   0.19529   0.20522
 Alpha virt. eigenvalues --    0.20650   0.20862   0.21344   0.22118   0.22186
 Alpha virt. eigenvalues --    0.22733   0.22818   0.23060   0.23267   0.23635
 Alpha virt. eigenvalues --    0.24157   0.24598   0.25075   0.25429   0.25750
 Alpha virt. eigenvalues --    0.25888   0.26613   0.26646   0.27571   0.27926
 Alpha virt. eigenvalues --    0.28009   0.28431   0.29001   0.29239   0.30378
 Alpha virt. eigenvalues --    0.30921   0.31090   0.31159   0.31382   0.31811
 Alpha virt. eigenvalues --    0.31941   0.32839   0.33165   0.33245   0.33734
 Alpha virt. eigenvalues --    0.34136   0.34910   0.35314   0.35387   0.36406
 Alpha virt. eigenvalues --    0.36776   0.37989   0.38327   0.39523   0.39593
 Alpha virt. eigenvalues --    0.39627   0.39941   0.40328   0.41539   0.42421
 Alpha virt. eigenvalues --    0.42584   0.43626   0.43843   0.44759   0.45475
 Alpha virt. eigenvalues --    0.45882   0.47531   0.48862   0.48956   0.49188
 Alpha virt. eigenvalues --    0.50130   0.51141   0.51962   0.52967   0.55049
 Alpha virt. eigenvalues --    0.55721   0.56606   0.58592   0.60086   0.64559
 Alpha virt. eigenvalues --    0.66266   0.68156   0.68316   0.68979   0.71497
 Alpha virt. eigenvalues --    0.72507   0.72854   0.74086   0.74776   0.75457
 Alpha virt. eigenvalues --    0.75575   0.76111   0.77153   0.78394   0.78480
 Alpha virt. eigenvalues --    0.80878   0.82181   0.82292   0.85008   0.86110
 Alpha virt. eigenvalues --    0.86362   0.87120   0.87926   0.88758   0.89247
 Alpha virt. eigenvalues --    0.91557   0.93811   0.96956   0.97132   0.97993
 Alpha virt. eigenvalues --    0.99161   0.99812   1.01372   1.02631   1.02998
 Alpha virt. eigenvalues --    1.04481   1.04662   1.07309   1.08311   1.09995
 Alpha virt. eigenvalues --    1.10735   1.11496   1.13275   1.13736   1.14534
 Alpha virt. eigenvalues --    1.15742   1.16560   1.17236   1.17782   1.19764
 Alpha virt. eigenvalues --    1.21249   1.21519   1.22168   1.24188   1.24974
 Alpha virt. eigenvalues --    1.26240   1.27795   1.27944   1.29938   1.29956
 Alpha virt. eigenvalues --    1.31186   1.33867   1.34806   1.35159   1.37650
 Alpha virt. eigenvalues --    1.37903   1.38163   1.38999   1.41473   1.42679
 Alpha virt. eigenvalues --    1.43573   1.43953   1.44375   1.45311   1.45494
 Alpha virt. eigenvalues --    1.46837   1.47842   1.48688   1.50073   1.50557
 Alpha virt. eigenvalues --    1.53539   1.56218   1.56792   1.59016   1.59697
 Alpha virt. eigenvalues --    1.63446   1.65248   1.66279   1.67788   1.70007
 Alpha virt. eigenvalues --    1.70958   1.71656   1.73525   1.74279   1.75101
 Alpha virt. eigenvalues --    1.75493   1.76718   1.78187   1.79166   1.80072
 Alpha virt. eigenvalues --    1.83145   1.84058   1.84797   1.85395   1.86204
 Alpha virt. eigenvalues --    1.87362   1.87464   1.87770   1.88129   1.88313
 Alpha virt. eigenvalues --    1.88998   1.90136   1.90829   1.92974   1.93430
 Alpha virt. eigenvalues --    1.94072   1.95221   1.96077   1.97003   1.97852
 Alpha virt. eigenvalues --    1.98045   2.00100   2.02011   2.02451   2.02654
 Alpha virt. eigenvalues --    2.03565   2.04761   2.04930   2.04978   2.05553
 Alpha virt. eigenvalues --    2.07349   2.09613   2.10276   2.11439   2.12878
 Alpha virt. eigenvalues --    2.13411   2.14821   2.15348   2.19228   2.19621
 Alpha virt. eigenvalues --    2.20574   2.21955   2.22914   2.24265   2.24935
 Alpha virt. eigenvalues --    2.27609   2.27701   2.29048   2.31725   2.32380
 Alpha virt. eigenvalues --    2.35171   2.35848   2.37627   2.38949   2.40035
 Alpha virt. eigenvalues --    2.40828   2.43392   2.46808   2.48838   2.50795
 Alpha virt. eigenvalues --    2.53946   2.55201   2.58608   2.60243   2.63321
 Alpha virt. eigenvalues --    2.64914   2.65931   2.68194   2.71850   2.72544
 Alpha virt. eigenvalues --    2.73587   2.74968   2.77103   2.77135   2.78275
 Alpha virt. eigenvalues --    2.81982   2.83774   2.85527   2.90140   2.94640
 Alpha virt. eigenvalues --    2.98734   3.00062   3.06835   3.10737   3.13479
 Alpha virt. eigenvalues --    3.16132   3.19908   3.24569   3.26930   3.29247
 Alpha virt. eigenvalues --    3.35222   3.40710   3.43417   4.13624   4.23889
 Alpha virt. eigenvalues --    4.25991   4.29370   4.30361   4.35513   4.39052
 Alpha virt. eigenvalues --    4.41201   4.42254   4.48571   4.50833   4.55941
 Alpha virt. eigenvalues --    4.58849   4.64674   4.68991   4.79881   4.91316
 Alpha virt. eigenvalues --    5.59088   6.19189   7.13542
          Condensed to atoms (all electrons):
               1          2          3          4          5          6
     1  C    5.582630  -0.003861  -0.008240  -0.004940  -0.034255  -0.002135
     2  C   -0.003861   6.126279  -0.378933  -0.086500   0.129730   0.016480
     3  C   -0.008240  -0.378933   6.732307   0.346003  -0.506867  -0.079996
     4  N   -0.004940  -0.086500   0.346003   7.689566   0.375803  -0.201649
     5  C   -0.034255   0.129730  -0.506867   0.375803   6.310127   0.659243
     6  O   -0.002135   0.016480  -0.079996  -0.201649   0.659243   8.300717
     7  N   -0.001835   0.019566  -0.130273  -0.400218   0.037157  -0.070725
     8  C   -0.008156   0.012361  -0.425303  -0.211950  -1.155326  -0.462124
     9  C    0.001944  -0.002836   0.105205   0.087240   1.127284   0.467225
    10  C   -0.002110   0.007825  -0.145239  -0.118620  -1.717931  -0.108928
    11  C   -0.000045   0.000031   0.012416   0.007768   0.129919   0.007920
    12  C   -0.000151   0.000212  -0.029341  -0.013006  -0.380762  -0.021417
    13  C    0.000298  -0.000541   0.011854   0.035191   0.242621   0.079132
    14  H    0.410568  -0.085647   0.027894   0.000557  -0.002220   0.000008
    15  H    0.415648  -0.063491  -0.009167   0.000597   0.000954  -0.000058
    16  H    0.416010  -0.063760  -0.009229   0.000592   0.000929  -0.000059
    17  H   -0.031460   0.419376  -0.080093   0.007147  -0.001935  -0.000225
    18  H   -0.031806   0.419742  -0.080300   0.007171  -0.001797  -0.000226
    19  H    0.005667  -0.051431   0.426076  -0.055668  -0.013729   0.001620
    20  H    0.005125  -0.050816   0.423709  -0.055403  -0.011966   0.001558
    21  H   -0.001968   0.001001  -0.074998   0.237483   0.028936   0.008276
    22  H   -0.000082   0.000124   0.001851   0.020846  -0.011831   0.006899
    23  H    0.000011  -0.000046   0.003234   0.000808   0.022302   0.002192
    24  H   -0.000001   0.000002  -0.000229   0.001097  -0.007651  -0.000007
    25  C   -0.000010   0.000318  -0.003998   0.005721  -0.128056   0.010965
    26  F   -0.000000   0.000011   0.000067  -0.000034   0.001947  -0.000590
    27  F    0.000000  -0.000001   0.000042   0.000005   0.003474  -0.000009
    28  F    0.000000  -0.000001   0.000043   0.000005   0.003583  -0.000008
    29  N    0.000001  -0.000000   0.000259  -0.000025   0.009499   0.000091
    30  O    0.000000  -0.000000   0.000009   0.000004   0.001794   0.000001
    31  O   -0.000000   0.000000  -0.000002  -0.000001  -0.000118   0.000011
    32  H    0.000000   0.000000   0.000028   0.000015   0.003206   0.000002
               7          8          9         10         11         12
     1  C   -0.001835  -0.008156   0.001944  -0.002110  -0.000045  -0.000151
     2  C    0.019566   0.012361  -0.002836   0.007825   0.000031   0.000212
     3  C   -0.130273  -0.425303   0.105205  -0.145239   0.012416  -0.029341
     4  N   -0.400218  -0.211950   0.087240  -0.118620   0.007768  -0.013006
     5  C    0.037157  -1.155326   1.127284  -1.717931   0.129919  -0.380762
     6  O   -0.070725  -0.462124   0.467225  -0.108928   0.007920  -0.021417
     7  N    7.815029  -0.040071  -0.276870   0.324920   0.077417  -0.002090
     8  C   -0.040071  18.994243  -3.854369   1.520444  -0.737592  -2.532873
     9  C   -0.276870  -3.854369  15.270865  -7.067416  -1.165471  -3.145484
    10  C    0.324920   1.520444  -7.067416  19.682221  -0.908978  -0.732459
    11  C    0.077417  -0.737592  -1.165471  -0.908978  13.003137  -1.265987
    12  C   -0.002090  -2.532873  -3.145484  -0.732459  -1.265987  25.330353
    13  C    0.044627  -4.627060   2.953398  -3.692955  -3.312369  -6.094850
    14  H    0.000010  -0.000044   0.000005  -0.000002  -0.000000  -0.000000
    15  H    0.000019   0.000030  -0.000031   0.000003   0.000000  -0.000000
    16  H    0.000020   0.000029  -0.000030   0.000003   0.000000  -0.000000
    17  H    0.000198  -0.000439  -0.000112   0.000078   0.000004   0.000000
    18  H    0.000169  -0.000399  -0.000149   0.000087   0.000005   0.000000
    19  H    0.000397  -0.005460   0.003773  -0.001114  -0.000009   0.000007
    20  H    0.000336  -0.005117   0.003769  -0.001043  -0.000013   0.000011
    21  H    0.028846   0.017682   0.002132  -0.002541  -0.000131   0.000027
    22  H    0.234271  -0.037960   0.058371  -0.077535   0.032808  -0.002687
    23  H   -0.015728   0.051133   0.342671   0.030092  -0.018978  -0.063445
    24  H   -0.010921   0.021725   0.045048   0.240517   0.024746  -0.041862
    25  C   -0.005022  -1.165914  -0.129602   0.605954  -0.661404  -2.558688
    26  F   -0.001183   0.138737   0.048019   0.003786   0.007182   0.005152
    27  F    0.000280   0.029020   0.043839  -0.018917   0.045933  -0.107665
    28  F    0.000283   0.029484   0.044370  -0.019546   0.046606  -0.108343
    29  N    0.000132   0.003133  -0.076030   0.035307   0.219807  -0.285336
    30  O   -0.000017   0.075843   0.045926   0.134286   0.140875  -0.768710
    31  O    0.000006   0.025154   0.102889  -0.023788   0.135356  -0.369769
    32  H    0.000523   0.023536  -0.000983  -0.121366   0.244002   0.071048
              13         14         15         16         17         18
     1  C    0.000298   0.410568   0.415648   0.416010  -0.031460  -0.031806
     2  C   -0.000541  -0.085647  -0.063491  -0.063760   0.419376   0.419742
     3  C    0.011854   0.027894  -0.009167  -0.009229  -0.080093  -0.080300
     4  N    0.035191   0.000557   0.000597   0.000592   0.007147   0.007171
     5  C    0.242621  -0.002220   0.000954   0.000929  -0.001935  -0.001797
     6  O    0.079132   0.000008  -0.000058  -0.000059  -0.000225  -0.000226
     7  N    0.044627   0.000010   0.000019   0.000020   0.000198   0.000169
     8  C   -4.627060  -0.000044   0.000030   0.000029  -0.000439  -0.000399
     9  C    2.953398   0.000005  -0.000031  -0.000030  -0.000112  -0.000149
    10  C   -3.692955  -0.000002   0.000003   0.000003   0.000078   0.000087
    11  C   -3.312369  -0.000000   0.000000   0.000000   0.000004   0.000005
    12  C   -6.094850  -0.000000  -0.000000  -0.000000   0.000000   0.000000
    13  C   20.938811  -0.000000   0.000000   0.000000  -0.000003  -0.000004
    14  H   -0.000000   0.485860  -0.023843  -0.023857  -0.003062  -0.003065
    15  H    0.000000  -0.023843   0.488305  -0.027688  -0.004763   0.003883
    16  H    0.000000  -0.023857  -0.027688   0.488336   0.003880  -0.004770
    17  H   -0.000003  -0.003062  -0.004763   0.003880   0.504277  -0.033207
    18  H   -0.000004  -0.003065   0.003883  -0.004770  -0.033207   0.504395
    19  H    0.000225  -0.000059  -0.000320   0.002627   0.003784  -0.005286
    20  H    0.000242  -0.000060   0.002620  -0.000317  -0.005296   0.003783
    21  H   -0.000419  -0.000004   0.000001   0.000001   0.000909   0.000910
    22  H    0.011465  -0.000000  -0.000000  -0.000000   0.000001   0.000001
    23  H   -0.066460  -0.000000   0.000000  -0.000000  -0.000000  -0.000000
    24  H    0.022811   0.000000  -0.000000  -0.000000   0.000000   0.000000
    25  C   -0.802116  -0.000000  -0.000000  -0.000000  -0.000000  -0.000000
    26  F   -0.178300   0.000000   0.000000   0.000000  -0.000000  -0.000000
    27  F    0.080283  -0.000000  -0.000000   0.000000   0.000000  -0.000000
    28  F    0.080733  -0.000000   0.000000  -0.000000  -0.000000   0.000000
    29  N   -0.059369   0.000000   0.000000   0.000000   0.000000   0.000000
    30  O    0.265830  -0.000000  -0.000000  -0.000000  -0.000000  -0.000000
    31  O   -0.173639  -0.000000   0.000000   0.000000  -0.000000  -0.000000
    32  H    0.115224  -0.000000   0.000000   0.000000   0.000000   0.000000
              19         20         21         22         23         24
     1  C    0.005667   0.005125  -0.001968  -0.000082   0.000011  -0.000001
     2  C   -0.051431  -0.050816   0.001001   0.000124  -0.000046   0.000002
     3  C    0.426076   0.423709  -0.074998   0.001851   0.003234  -0.000229
     4  N   -0.055668  -0.055403   0.237483   0.020846   0.000808   0.001097
     5  C   -0.013729  -0.011966   0.028936  -0.011831   0.022302  -0.007651
     6  O    0.001620   0.001558   0.008276   0.006899   0.002192  -0.000007
     7  N    0.000397   0.000336   0.028846   0.234271  -0.015728  -0.010921
     8  C   -0.005460  -0.005117   0.017682  -0.037960   0.051133   0.021725
     9  C    0.003773   0.003769   0.002132   0.058371   0.342671   0.045048
    10  C   -0.001114  -0.001043  -0.002541  -0.077535   0.030092   0.240517
    11  C   -0.000009  -0.000013  -0.000131   0.032808  -0.018978   0.024746
    12  C    0.000007   0.000011   0.000027  -0.002687  -0.063445  -0.041862
    13  C    0.000225   0.000242  -0.000419   0.011465  -0.066460   0.022811
    14  H   -0.000059  -0.000060  -0.000004  -0.000000  -0.000000   0.000000
    15  H   -0.000320   0.002620   0.000001  -0.000000   0.000000  -0.000000
    16  H    0.002627  -0.000317   0.000001  -0.000000  -0.000000  -0.000000
    17  H    0.003784  -0.005296   0.000909   0.000001  -0.000000   0.000000
    18  H   -0.005286   0.003783   0.000910   0.000001  -0.000000   0.000000
    19  H    0.488972  -0.035086   0.002562   0.000004  -0.000000   0.000000
    20  H   -0.035086   0.488908   0.002559   0.000004  -0.000000   0.000000
    21  H    0.002562   0.002559   0.317374   0.002476  -0.000001   0.000004
    22  H    0.000004   0.000004   0.002476   0.308083  -0.000126   0.005771
    23  H   -0.000000  -0.000000  -0.000001  -0.000126   0.387874  -0.000100
    24  H    0.000000   0.000000   0.000004   0.005771  -0.000100   0.457923
    25  C   -0.000012  -0.000009  -0.000023   0.001302   0.004256   0.004811
    26  F    0.000000   0.000000   0.000000  -0.000001   0.008243  -0.000000
    27  F   -0.000000   0.000000  -0.000000  -0.000000   0.000008   0.000001
    28  F    0.000000  -0.000000  -0.000000  -0.000000   0.000004   0.000001
    29  N    0.000000   0.000000   0.000000  -0.000029   0.000031  -0.000302
    30  O   -0.000000  -0.000000  -0.000000   0.000002   0.000041   0.000027
    31  O   -0.000000  -0.000000  -0.000000  -0.000001  -0.000074   0.000057
    32  H   -0.000000  -0.000000  -0.000000  -0.000010   0.000008  -0.003794
              25         26         27         28         29         30
     1  C   -0.000010  -0.000000   0.000000   0.000000   0.000001   0.000000
     2  C    0.000318   0.000011  -0.000001  -0.000001  -0.000000  -0.000000
     3  C   -0.003998   0.000067   0.000042   0.000043   0.000259   0.000009
     4  N    0.005721  -0.000034   0.000005   0.000005  -0.000025   0.000004
     5  C   -0.128056   0.001947   0.003474   0.003583   0.009499   0.001794
     6  O    0.010965  -0.000590  -0.000009  -0.000008   0.000091   0.000001
     7  N   -0.005022  -0.001183   0.000280   0.000283   0.000132  -0.000017
     8  C   -1.165914   0.138737   0.029020   0.029484   0.003133   0.075843
     9  C   -0.129602   0.048019   0.043839   0.044370  -0.076030   0.045926
    10  C    0.605954   0.003786  -0.018917  -0.019546   0.035307   0.134286
    11  C   -0.661404   0.007182   0.045933   0.046606   0.219807   0.140875
    12  C   -2.558688   0.005152  -0.107665  -0.108343  -0.285336  -0.768710
    13  C   -0.802116  -0.178300   0.080283   0.080733  -0.059369   0.265830
    14  H   -0.000000   0.000000  -0.000000  -0.000000   0.000000  -0.000000
    15  H   -0.000000   0.000000  -0.000000   0.000000   0.000000  -0.000000
    16  H   -0.000000   0.000000   0.000000  -0.000000   0.000000  -0.000000
    17  H   -0.000000  -0.000000   0.000000  -0.000000   0.000000  -0.000000
    18  H   -0.000000  -0.000000  -0.000000   0.000000   0.000000  -0.000000
    19  H   -0.000012   0.000000  -0.000000   0.000000   0.000000  -0.000000
    20  H   -0.000009   0.000000   0.000000  -0.000000   0.000000  -0.000000
    21  H   -0.000023   0.000000  -0.000000  -0.000000   0.000000  -0.000000
    22  H    0.001302  -0.000001  -0.000000  -0.000000  -0.000029   0.000002
    23  H    0.004256   0.008243   0.000008   0.000004   0.000031   0.000041
    24  H    0.004811  -0.000000   0.000001   0.000001  -0.000302   0.000027
    25  C    9.052154   0.103991   0.071662   0.070880  -0.326174   0.007933
    26  F    0.103991   9.267211  -0.036816  -0.036859   0.000841   0.000033
    27  F    0.071662  -0.036816   9.216040  -0.043799   0.001367  -0.001709
    28  F    0.070880  -0.036859  -0.043799   9.215877   0.001329  -0.001710
    29  N   -0.326174   0.000841   0.001367   0.001329   7.236018   0.314567
    30  O    0.007933   0.000033  -0.001709  -0.001710   0.314567   7.874594
    31  O    0.255681   0.000854  -0.021156  -0.021146   0.313928  -0.090364
    32  H    0.000733   0.000007  -0.000012  -0.000012  -0.043545   0.020235
              31         32
     1  C   -0.000000   0.000000
     2  C    0.000000   0.000000
     3  C   -0.000002   0.000028
     4  N   -0.000001   0.000015
     5  C   -0.000118   0.003206
     6  O    0.000011   0.000002
     7  N    0.000006   0.000523
     8  C    0.025154   0.023536
     9  C    0.102889  -0.000983
    10  C   -0.023788  -0.121366
    11  C    0.135356   0.244002
    12  C   -0.369769   0.071048
    13  C   -0.173639   0.115224
    14  H   -0.000000  -0.000000
    15  H    0.000000   0.000000
    16  H    0.000000   0.000000
    17  H   -0.000000   0.000000
    18  H   -0.000000   0.000000
    19  H   -0.000000  -0.000000
    20  H   -0.000000  -0.000000
    21  H   -0.000000  -0.000000
    22  H   -0.000001  -0.000010
    23  H   -0.000074   0.000008
    24  H    0.000057  -0.003794
    25  C    0.255681   0.000733
    26  F    0.000854   0.000007
    27  F   -0.021156  -0.000012
    28  F   -0.021146  -0.000012
    29  N    0.313928  -0.043545
    30  O   -0.090364   0.020235
    31  O    7.898294  -0.002188
    32  H   -0.002188   0.425216
 Mulliken charges:
               1
     1  C   -0.706848
     2  C   -0.365191
     3  C   -0.128790
     4  N   -0.675604
     5  C    0.885935
     6  O   -0.614182
     7  N   -0.629251
     8  C    0.327602
     9  C    0.965412
    10  C   -1.825030
    11  C   -0.064956
    12  C   -0.881886
    13  C    0.125338
    14  H    0.216960
    15  H    0.217302
    16  H    0.217282
    17  H    0.220942
    18  H    0.220863
    19  H    0.232461
    20  H    0.232502
    21  H    0.428905
    22  H    0.445981
    23  H    0.312051
    24  H    0.240324
    25  C    1.584670
    26  F   -0.332298
    27  F   -0.261871
    28  F   -0.261775
    29  N   -0.345497
    30  O   -0.019490
    31  O   -0.029984
    32  H    0.268124
 Sum of Mulliken charges =  -0.00000
 Mulliken charges with hydrogens summed into heavy atoms:
               1
     1  C   -0.055304
     2  C    0.076613
     3  C    0.336173
     4  N   -0.246699
     5  C    0.885935
     6  O   -0.614182
     7  N   -0.183270
     8  C    0.327602
     9  C    1.277462
    10  C   -1.584706
    11  C    0.203168
    12  C   -0.881886
    13  C    0.125338
    25  C    1.584670
    26  F   -0.332298
    27  F   -0.261871
    28  F   -0.261775
    29  N   -0.345497
    30  O   -0.019490
    31  O   -0.029984
 Electronic spatial extent (au):  <R**2>=           8959.8347
 Charge=             -0.0000 electrons
 Dipole moment (field-independent basis, Debye):
    X=            -10.6386    Y=             -6.6744    Z=             -0.0374  Tot=             12.5591
 Quadrupole moment (field-independent basis, Debye-Ang):
   XX=           -125.1947   YY=           -110.0595   ZZ=           -117.4273
   XY=             11.5231   XZ=              0.0200   YZ=              0.0378
 Traceless Quadrupole moment (field-independent basis, Debye-Ang):
   XX=             -7.6342   YY=              7.5010   ZZ=              0.1332
   XY=             11.5231   XZ=              0.0200   YZ=              0.0378
 Octapole moment (field-independent basis, Debye-Ang**2):
  XXX=           -287.6166  YYY=            -11.4576  ZZZ=              0.0860  XYY=            -14.1595
  XXY=             -1.8467  XXZ=             -0.4427  XZZ=             20.1979  YZZ=             13.4077
  YYZ=             -0.1809  XYZ=              0.0032
 Hexadecapole moment (field-independent basis, Debye-Ang**3):
 XXXX=          -9928.8028 YYYY=          -1326.7239 ZZZZ=           -213.0025 XXXY=            338.0820
 XXXZ=             -0.7332 YYYX=            141.9033 YYYZ=              0.1996 ZZZX=              0.0653
 ZZZY=             -0.1207 XXYY=          -1933.9746 XXZZ=          -1661.8835 YYZZ=           -281.8830
 XXYZ=              0.5248 YYXZ=              0.4078 ZZXY=              9.1607
 N-N= 1.571748992441D+03 E-N=-5.755670997576D+03  KE= 1.106043349839D+03
 D1PCM: PCM CHGder 1st derivatives, ID1Alg=3 FixD1E=F DoIter=F DoCFld=F I1PDM=0.
 Calling FoFJK, ICntrl=      2127 FMM=F ISym2X=0 I1Cent= 0 IOpClX= 0 NMat=1 NMatS=1 NMatT=0.
 ***** Axes restored to original set *****
 -------------------------------------------------------------------
 Center     Atomic                   Forces (Hartrees/Bohr)
 Number     Number              X              Y              Z
 -------------------------------------------------------------------
      1        6          -0.005077942    0.001203061   -0.000124038
      2        6           0.005064496   -0.005510603    0.000297505
      3        6          -0.006494705    0.006959419   -0.000332472
      4        7           0.016692915   -0.034778250    0.001619333
      5        6          -0.019662118    0.024546012   -0.001226072
      6        8           0.004319406    0.015307980   -0.000573169
      7        7           0.032644497   -0.022397965    0.001463116
      8        6          -0.021796149   -0.003714945   -0.000272067
      9        6           0.020018353    0.003730163    0.000262621
     10        6           0.000672324    0.003719620   -0.000133104
     11        6          -0.027121432    0.032828065   -0.002151463
     12        6          -0.040844144    0.000748159   -0.001022459
     13        6          -0.004584219   -0.019193862    0.000776587
     14        1           0.005818499    0.009468926   -0.000266258
     15        1          -0.001177097   -0.004389008    0.009490174
     16        1          -0.000839404   -0.005102232   -0.009185442
     17        1           0.000804181    0.003738268    0.008603387
     18        1           0.001141295    0.003066431   -0.008826800
     19        1           0.001651733   -0.003804132   -0.010080947
     20        1           0.001281210   -0.003041396    0.010389680
     21        1          -0.004145426    0.015787333   -0.000692880
     22        1           0.006655395    0.014847481   -0.000446598
     23        1          -0.008226170    0.003493563   -0.000307097
     24        1          -0.001597785   -0.002617667    0.000082803
     25        6           0.007563602    0.013008830   -0.000403034
     26        9           0.035367485   -0.019618719    0.001734444
     27        9          -0.023793437    0.001925980    0.032528559
     28        9          -0.022239597   -0.001102838   -0.033667630
     29        7           0.008122320    0.004834225    0.000032688
     30        8           0.017691457   -0.063990023    0.003293272
     31        8          -0.010060997    0.058303240   -0.002897754
     32        1           0.032151455   -0.028255117    0.002035115
 -------------------------------------------------------------------
 Cartesian Forces:  Max     0.063990023 RMS     0.016339876

 GradGradGradGradGradGradGradGradGradGradGradGradGradGradGradGradGradGrad
 Berny optimization.
 FormGI is forming the generalized inverse of G from B-inverse, IUseBI=4.
 GSVD:  received Info=                   1 from GESDD.
 Internal  Forces:  Max     0.059096359 RMS     0.012375909
 Search for a local minimum.
 Step number   1 out of a maximum of  166
 All quantities printed in internal units (Hartrees-Bohrs-Radians)
 Mixed Optimization -- RFO/linear search
 Second derivative matrix not updated -- first step.
 ITU=  0
     Eigenvalues ---    0.00323   0.00426   0.00461   0.00994   0.01152
     Eigenvalues ---    0.01202   0.01202   0.01242   0.01467   0.01624
     Eigenvalues ---    0.01649   0.01731   0.01783   0.01878   0.01970
     Eigenvalues ---    0.02094   0.02134   0.02141   0.02145   0.02175
     Eigenvalues ---    0.02189   0.03741   0.04447   0.04929   0.05552
     Eigenvalues ---    0.05673   0.05791   0.08055   0.09158   0.10820
     Eigenvalues ---    0.11117   0.11992   0.12653   0.16000   0.16000
     Eigenvalues ---    0.16000   0.16000   0.16000   0.16000   0.16000
     Eigenvalues ---    0.16000   0.21966   0.22000   0.22000   0.22001
     Eigenvalues ---    0.22359   0.23482   0.24589   0.25000   0.25000
     Eigenvalues ---    0.25000   0.25000   0.25000   0.25000   0.25000
     Eigenvalues ---    0.25000   0.25000   0.25000   0.29102   0.29827
     Eigenvalues ---    0.30078   0.32340   0.32341   0.32401   0.32401
     Eigenvalues ---    0.32512   0.32515   0.32547   0.35708   0.37166
     Eigenvalues ---    0.37890   0.39113   0.39477   0.39999   0.40281
     Eigenvalues ---    0.42438   0.42452   0.42476   0.42546   0.44562
     Eigenvalues ---    0.44970   0.47039   0.48243   0.48476   0.48477
     Eigenvalues ---    0.51049   0.52259   0.95149   1.07382   1.08973
 RFO step:  Lambda=-5.05235397D-02 EMin= 3.22792349D-03
 Linear search not attempted -- first point.
 Maximum step size (   0.300) exceeded in Quadratic search.
    -- Step size scaled by   0.843
 Iteration  1 RMS(Cart)=  0.07854263 RMS(Int)=  0.00152269
 Iteration  2 RMS(Cart)=  0.00221696 RMS(Int)=  0.00025850
 Iteration  3 RMS(Cart)=  0.00000499 RMS(Int)=  0.00025848
 Iteration  4 RMS(Cart)=  0.00000001 RMS(Int)=  0.00025848
 Variable       Old X    -DE/DX   Delta X   Delta X   Delta X     New X
                                 (Linear)    (Quad)   (Total)
    R1        2.88310   0.00167   0.00000   0.00405   0.00405   2.88715
    R2        2.09854  -0.01076   0.00000  -0.02412  -0.02412   2.07441
    R3        2.09911  -0.01021   0.00000  -0.02292  -0.02292   2.07619
    R4        2.09917  -0.01023   0.00000  -0.02297  -0.02297   2.07620
    R5        2.89790  -0.00592   0.00000  -0.01462  -0.01462   2.88327
    R6        2.10116  -0.00899   0.00000  -0.02025  -0.02025   2.08091
    R7        2.10116  -0.00899   0.00000  -0.02023  -0.02023   2.08093
    R8        2.74526  -0.00074   0.00000  -0.00146  -0.00146   2.74380
    R9        2.10226  -0.01042   0.00000  -0.02350  -0.02350   2.07876
   R10        2.10225  -0.01043   0.00000  -0.02351  -0.02351   2.07874
   R11        2.57652  -0.00426   0.00000  -0.00627  -0.00627   2.57025
   R12        1.95069  -0.01592   0.00000  -0.02827  -0.02827   1.92242
   R13        2.30647   0.01520   0.00000   0.01279   0.01279   2.31926
   R14        2.58821   0.01226   0.00000   0.01843   0.01843   2.60664
   R15        2.72271  -0.04182   0.00000  -0.07919  -0.07919   2.64352
   R16        1.95052  -0.01529   0.00000  -0.02714  -0.02714   1.92338
   R17        2.67236  -0.01318   0.00000  -0.02338  -0.02339   2.64897
   R18        2.64551  -0.00487   0.00000  -0.00736  -0.00737   2.63813
   R19        2.67928  -0.02623   0.00000  -0.04738  -0.04738   2.63190
   R20        2.02297   0.00836   0.00000   0.01670   0.01670   2.03968
   R21        2.62139  -0.00663   0.00000  -0.00954  -0.00953   2.61186
   R22        2.04541   0.00287   0.00000   0.00593   0.00593   2.05133
   R23        2.64725  -0.00918   0.00000  -0.01491  -0.01490   2.63235
   R24        1.95021   0.04283   0.00000   0.07599   0.07599   2.02620
   R25        2.70623  -0.01453   0.00000  -0.02757  -0.02756   2.67867
   R26        2.71555   0.01516   0.00000   0.02838   0.02838   2.74393
   R27        2.87808  -0.00624   0.00000  -0.01497  -0.01497   2.86311
   R28        2.61681  -0.04042   0.00000  -0.06395  -0.06395   2.55286
   R29        2.61435  -0.03885   0.00000  -0.06121  -0.06121   2.55314
   R30        2.61434  -0.03887   0.00000  -0.06124  -0.06124   2.55310
   R31        2.25820   0.05910   0.00000   0.04432   0.04432   2.30253
   R32        2.25246   0.05199   0.00000   0.03845   0.03845   2.29092
    A1        1.91174   0.00325   0.00000   0.01371   0.01363   1.92537
    A2        1.92601   0.00237   0.00000   0.00912   0.00907   1.93508
    A3        1.92584   0.00236   0.00000   0.00912   0.00907   1.93491
    A4        1.89672  -0.00262   0.00000  -0.00981  -0.00988   1.88684
    A5        1.89656  -0.00261   0.00000  -0.00974  -0.00982   1.88675
    A6        1.90646  -0.00292   0.00000  -0.01304  -0.01306   1.89341
    A7        1.94378  -0.00136   0.00000  -0.00243  -0.00243   1.94135
    A8        1.90077   0.00152   0.00000   0.00840   0.00839   1.90917
    A9        1.90039   0.00155   0.00000   0.00858   0.00858   1.90897
   A10        1.91014  -0.00008   0.00000  -0.00196  -0.00196   1.90818
   A11        1.91013  -0.00009   0.00000  -0.00201  -0.00201   1.90812
   A12        1.89804  -0.00154   0.00000  -0.01076  -0.01080   1.88724
   A13        1.93499  -0.00409   0.00000  -0.01103  -0.01100   1.92399
   A14        1.90603   0.00241   0.00000   0.01046   0.01045   1.91649
   A15        1.90636   0.00239   0.00000   0.01030   0.01029   1.91665
   A16        1.90657   0.00093   0.00000   0.00213   0.00216   1.90873
   A17        1.90703   0.00091   0.00000   0.00194   0.00197   1.90900
   A18        1.90258  -0.00255   0.00000  -0.01395  -0.01399   1.88859
   A19        2.13027  -0.00589   0.00000  -0.01835  -0.01835   2.11193
   A20        2.07556  -0.00064   0.00000  -0.00516  -0.00516   2.07039
   A21        2.07735   0.00652   0.00000   0.02351   0.02351   2.10086
   A22        2.08122   0.01807   0.00000   0.05071   0.05071   2.13193
   A23        2.08249  -0.02526   0.00000  -0.07087  -0.07087   2.01162
   A24        2.11948   0.00719   0.00000   0.02017   0.02017   2.13964
   A25        2.24185  -0.00931   0.00000  -0.02901  -0.02901   2.21284
   A26        2.02253   0.01011   0.00000   0.03634   0.03634   2.05888
   A27        2.01880  -0.00080   0.00000  -0.00733  -0.00733   2.01147
   A28        2.17878  -0.00867   0.00000  -0.02500  -0.02499   2.15380
   A29        2.04827   0.00128   0.00000   0.00292   0.00293   2.05119
   A30        2.05614   0.00739   0.00000   0.02208   0.02206   2.07819
   A31        2.12755  -0.00354   0.00000  -0.01301  -0.01303   2.11451
   A32        2.10465  -0.00143   0.00000  -0.00633  -0.00632   2.09833
   A33        2.05099   0.00498   0.00000   0.01934   0.01935   2.07034
   A34        2.11480  -0.00628   0.00000  -0.01534  -0.01535   2.09946
   A35        2.10514   0.00202   0.00000   0.00317   0.00317   2.10831
   A36        2.06324   0.00426   0.00000   0.01217   0.01217   2.07542
   A37        2.13044  -0.00610   0.00000  -0.01543  -0.01540   2.11504
   A38        2.07638   0.00441   0.00000   0.01317   0.01316   2.08954
   A39        2.07637   0.00169   0.00000   0.00225   0.00224   2.07861
   A40        2.06404   0.00579   0.00000   0.01643   0.01645   2.08049
   A41        2.04557  -0.01124   0.00000  -0.03163  -0.03165   2.01393
   A42        2.17357   0.00545   0.00000   0.01521   0.01519   2.18877
   A43        2.07340   0.00274   0.00000   0.00527   0.00527   2.07868
   A44        2.06855  -0.01730   0.00000  -0.04735  -0.04735   2.02120
   A45        2.14123   0.01457   0.00000   0.04208   0.04208   2.18331
   A46        1.96305  -0.00434   0.00000  -0.01893  -0.01861   1.94444
   A47        1.91717   0.01641   0.00000   0.04940   0.04832   1.96549
   A48        1.91723   0.01641   0.00000   0.04939   0.04832   1.96555
   A49        1.87337  -0.01004   0.00000  -0.03474  -0.03444   1.83894
   A50        1.87340  -0.01004   0.00000  -0.03475  -0.03445   1.83895
   A51        1.91858  -0.00992   0.00000  -0.01448  -0.01659   1.90199
   A52        2.09011  -0.02451   0.00000  -0.06878  -0.06878   2.02133
   A53        2.12548  -0.01971   0.00000  -0.05531  -0.05531   2.07018
   A54        2.06759   0.04422   0.00000   0.12408   0.12408   2.19167
    D1       -3.14153  -0.00000   0.00000  -0.00005  -0.00005  -3.14158
    D2        1.03353  -0.00005   0.00000  -0.00162  -0.00161   1.03191
    D3       -1.03366   0.00004   0.00000   0.00157   0.00156  -1.03210
    D4        1.05421  -0.00028   0.00000  -0.00221  -0.00223   1.05198
    D5       -1.05393  -0.00032   0.00000  -0.00378  -0.00378  -1.05771
    D6       -3.12111  -0.00023   0.00000  -0.00059  -0.00061  -3.12173
    D7       -1.05437   0.00028   0.00000   0.00218   0.00219  -1.05218
    D8        3.12068   0.00023   0.00000   0.00061   0.00064   3.12131
    D9        1.05349   0.00033   0.00000   0.00380   0.00381   1.05730
   D10        3.14017   0.00002   0.00000   0.00021   0.00021   3.14038
   D11        1.03858  -0.00012   0.00000  -0.00227  -0.00225   1.03633
   D12       -1.04064   0.00013   0.00000   0.00234   0.00232  -1.03832
   D13       -1.04039   0.00100   0.00000   0.00785   0.00785  -1.03254
   D14        3.14121   0.00086   0.00000   0.00537   0.00539  -3.13659
   D15        1.06199   0.00111   0.00000   0.00999   0.00996   1.07195
   D16        1.03803  -0.00098   0.00000  -0.00764  -0.00763   1.03040
   D17       -1.06356  -0.00113   0.00000  -0.01012  -0.01009  -1.07365
   D18        3.14040  -0.00088   0.00000  -0.00550  -0.00551   3.13489
   D19       -3.14077  -0.00002   0.00000  -0.00018  -0.00018  -3.14096
   D20       -0.00002  -0.00001   0.00000  -0.00011  -0.00011  -0.00013
   D21       -1.03950   0.00100   0.00000   0.00724   0.00725  -1.03226
   D22        2.10125   0.00101   0.00000   0.00732   0.00732   2.10857
   D23        1.04044  -0.00100   0.00000  -0.00728  -0.00728   1.03316
   D24       -2.10199  -0.00099   0.00000  -0.00721  -0.00721  -2.10920
   D25       -0.00070  -0.00002   0.00000  -0.00028  -0.00028  -0.00097
   D26        3.13981   0.00003   0.00000   0.00042   0.00042   3.14023
   D27       -3.14145  -0.00003   0.00000  -0.00033  -0.00034   3.14140
   D28       -0.00095   0.00003   0.00000   0.00036   0.00036  -0.00058
   D29       -3.14069  -0.00003   0.00000  -0.00034  -0.00034  -3.14103
   D30       -0.00089  -0.00003   0.00000  -0.00033  -0.00032  -0.00122
   D31       -0.00021   0.00004   0.00000   0.00038   0.00038   0.00018
   D32        3.13959   0.00003   0.00000   0.00040   0.00040   3.13998
   D33       -0.00689   0.00002   0.00000   0.00031   0.00031  -0.00657
   D34        3.13477   0.00004   0.00000   0.00046   0.00046   3.13523
   D35        3.13650   0.00002   0.00000   0.00026   0.00026   3.13676
   D36       -0.00503   0.00003   0.00000   0.00041   0.00041  -0.00462
   D37        3.14117   0.00002   0.00000   0.00022   0.00022   3.14140
   D38       -0.00086   0.00003   0.00000   0.00042   0.00042  -0.00045
   D39       -0.00049   0.00001   0.00000   0.00007   0.00007  -0.00042
   D40        3.14066   0.00002   0.00000   0.00026   0.00026   3.14093
   D41       -3.14092  -0.00003   0.00000  -0.00030  -0.00031  -3.14123
   D42        0.00006  -0.00001   0.00000  -0.00015  -0.00015  -0.00010
   D43        0.00073  -0.00001   0.00000  -0.00016  -0.00016   0.00057
   D44       -3.14147  -0.00000   0.00000  -0.00001  -0.00001  -3.14148
   D45       -0.00013   0.00000   0.00000   0.00005   0.00005  -0.00008
   D46        3.14145   0.00000   0.00000   0.00002   0.00002   3.14147
   D47       -3.14129  -0.00001   0.00000  -0.00013  -0.00013  -3.14143
   D48        0.00028  -0.00001   0.00000  -0.00016  -0.00016   0.00012
   D49       -0.00036   0.00001   0.00000   0.00013   0.00013  -0.00023
   D50        3.14125   0.00001   0.00000   0.00005   0.00005   3.14129
   D51       -3.14136   0.00000   0.00000  -0.00001  -0.00001  -3.14137
   D52        0.00025  -0.00001   0.00000  -0.00010  -0.00010   0.00015
   D53       -0.00028   0.00000   0.00000   0.00000   0.00000  -0.00027
   D54        3.14137  -0.00000   0.00000  -0.00004  -0.00004   3.14133
   D55        3.14130   0.00001   0.00000   0.00009   0.00009   3.14139
   D56       -0.00024   0.00000   0.00000   0.00004   0.00004  -0.00020
   D57        0.00051  -0.00001   0.00000  -0.00008  -0.00008   0.00042
   D58       -3.14107  -0.00000   0.00000  -0.00005  -0.00005  -3.14112
   D59       -3.14114  -0.00000   0.00000  -0.00004  -0.00004  -3.14118
   D60        0.00047   0.00000   0.00000  -0.00001  -0.00000   0.00046
   D61       -0.00029   0.00003   0.00000   0.00037   0.00037   0.00008
   D62       -3.14143  -0.00002   0.00000  -0.00031  -0.00032   3.14144
   D63        3.14136   0.00002   0.00000   0.00032   0.00032  -3.14150
   D64        0.00022  -0.00003   0.00000  -0.00036  -0.00036  -0.00014
   D65       -0.00036   0.00000   0.00000  -0.00000  -0.00000  -0.00036
   D66       -2.08571   0.00432   0.00000   0.02255   0.02346  -2.06225
   D67        2.08507  -0.00433   0.00000  -0.02256  -0.02348   2.06159
   D68        3.14121  -0.00000   0.00000  -0.00003  -0.00003   3.14118
   D69        1.05586   0.00432   0.00000   0.02252   0.02343   1.07929
   D70       -1.05655  -0.00433   0.00000  -0.02259  -0.02351  -1.08005
         Item               Value     Threshold  Converged?
 Maximum Force            0.059096     0.000450     NO 
 RMS     Force            0.012376     0.000300     NO 
 Maximum Displacement     0.331759     0.001800     NO 
 RMS     Displacement     0.079252     0.001200     NO 
 Predicted change in Energy=-2.700033D-02
 GradGradGradGradGradGradGradGradGradGradGradGradGradGradGradGradGradGrad

                          Input orientation:                          
 ---------------------------------------------------------------------
 Center     Atomic      Atomic             Coordinates (Angstroms)
 Number     Number       Type             X           Y           Z
 ---------------------------------------------------------------------
[...]
 45442,-0.00132448,-0.00113254,0.00107619,-0.00040826,-0.01368580,-0.01
 620335,0.03788116,-0.00002817,0.00000086,-0.00000036,-0.00000301,0.000
 00578,-0.00001268,0.00000077,0.00000912,0.00000696,0.00000272,-0.00000
 701,0.00000824,0.00000981,-0.00000021,-0.00000923,-0.00001422,0.000010
 46,0.00000174,-0.00007462,0.00003370,-0.00004311,0.00004588,0.00006982
 ,-0.00000135,-0.00008195,0.00005757,0.00007019,0.00016173,-0.00015487,
 0.00119048,-0.00004279,-0.00006943,0.00014765,-0.02822960,-0.12695349,
 0.08695862,0.00639361,0.01865258,-0.01410844,0.02608472,0.11774795,0.0
 0000443,0.00002248,-0.00001364,0.00001840,-0.00004238,0.00000884,-0.00
 017332,0.00010495,-0.00007840,0.00053817,0.00018169,0.00004673,-0.0010
 0064,0.00004023,-0.00020346,0.00045812,0.00001395,0.00029556,0.0008117
 3,0.00033735,0.00019149,-0.00016931,-0.00025227,0.00062642,-0.00094304
 ,0.00246847,0.00012565,-0.00017919,0.00029913,-0.00007507,-0.00017370,
 0.00092951,0.00040285,0.00128523,0.00014839,0.00018807,0.00696384,0.01
 182297,-0.01108097,0.00001589,-0.00000045,-0.00000053,0.00000506,-0.00
 000663,0.00001363,-0.00000453,0.00000129,-0.00000085,-0.00000026,0.000
 01633,0.00000033,-0.00000803,-0.00000984,0.00001354,-0.00000135,-0.000
 00022,0.00000465,0.00005279,-0.00002531,0.00004050,-0.00001175,-0.0000
 3252,-0.00004030,0.00008225,-0.00002621,-0.00008559,-0.00045518,-0.000
 17076,-0.00090066,0.00000195,0.00006980,-0.00008763,0.04865237,0.08894
 238,-0.22977545,0.04796733,-0.00364433,-0.04302113,-0.08357168,-0.1136
 0780,0.35653043,-0.00001013,-0.00002786,0.00000698,-0.00000230,0.00004
 489,-0.00002061,0.00016192,-0.00008353,-0.00000435,-0.00052199,-0.0003
 4640,0.00007105,0.00067928,0.00084800,-0.00000409,-0.00047774,-0.00059
 400,0.00003474,0.00006118,-0.00046245,0.00005696,-0.00028532,0.0007663
 7,0.00107423,0.00117340,-0.00293207,-0.00054772,0.00104755,-0.00075339
 ,-0.00003009,-0.00052066,-0.00181005,0.00100294,-0.00136802,0.00045562
 ,0.00016637,-0.01262776,-0.01004679,-0.01804390,-0.00002393,-0.0000072
 4,0.00000082,0.00000494,0.00000714,0.00000142,0.00000592,0.00000812,-0
 .00000410,-0.00000158,-0.00001174,-0.00000025,0.00000136,-0.00000677,0
 .00000712,0.00000699,0.00001175,-0.00001444,-0.00002589,0.00002468,-0.
 00000404,0.00000207,0.00004638,-0.00004039,-0.00008187,0.00000319,-0.0
 0006857,0.00083934,0.00064282,-0.00050236,0.00008323,-0.00007386,-0.00
 014051,-0.17954737,-0.05350293,-0.09809831,-0.08121568,0.01013027,-0.0
 2689117,0.00823464,0.00576792,-0.02113043,0.26846568,-0.00000782,-0.00
 004030,0.00000806,-0.00002542,0.00006256,-0.00002697,0.00024611,-0.000
 16977,0.00000009,-0.00080235,-0.00017027,0.00007404,0.00171341,-0.0005
 8130,0.00005865,-0.00065260,0.00034691,0.00000581,-0.00151185,-0.00053
 500,0.00008364,-0.00015134,0.00037087,0.00160556,0.00251538,-0.0055990
 7,-0.00127373,-0.00038975,-0.00053321,-0.00014732,-0.00033493,-0.00002
 557,0.00058368,-0.00060806,0.00104056,-0.00005197,-0.03382580,-0.00849
 338,-0.02601811,-0.00002599,-0.00000035,-0.00000050,0.00000018,0.00000
 452,-0.00000637,-0.00000001,0.00001091,0.00000526,0.00000278,-0.000002
 53,0.00000832,0.00000667,-0.00000585,-0.00000224,-0.00001496,0.0000135
 2,-0.00000100,-0.00005888,0.00002831,-0.00002696,0.00004301,0.00006836
 ,-0.00002797,-0.00013993,0.00004293,-0.00005081,0.00024956,0.00007232,
 -0.00071579,-0.00003040,-0.00007226,-0.00008077,-0.05011466,-0.1039193
 0,-0.04328610,0.02216075,0.01431136,0.01088939,0.01008873,0.01495108,0
 .01216602,0.04804396,0.09260690,-0.00000754,-0.00002359,0.00000196,-0.
 00000426,0.00003499,-0.00001956,0.00012192,-0.00007405,-0.00003495,-0.
 00043634,-0.00020577,0.00009295,0.00074788,0.00021927,-0.00005739,-0.0
 0036592,-0.00017451,0.00011145,-0.00044316,-0.00049183,0.00011889,-0.0
 0062922,0.00085024,0.00010248,0.00076470,-0.00397081,-0.00023392,0.000
 46747,-0.00028044,0.00003840,-0.00023238,-0.00087818,0.00023605,-0.000
 33511,0.00127814,0.00042734,-0.01673837,-0.00476896,-0.00367972,-0.000
 01758,-0.00000413,-0.00000022,0.00000455,0.00000308,0.00000417,0.00000
 144,0.00000940,-0.00000094,-0.00000058,-0.00000160,0.00000322,0.000000
 41,-0.00001027,0.00000923,-0.00000429,0.00001271,-0.00000773,-0.000020
 13,0.00001651,0.00000266,0.00001351,0.00004223,-0.00005034,-0.00011458
 ,0.00001612,-0.00006166,0.00042105,0.00016823,-0.00020073,0.00001994,-
 0.00006546,-0.00004302,-0.09498021,-0.04771448,-0.15264744,-0.01677387
 ,0.00705188,0.01266653,-0.03362839,0.00277494,-0.07364103,0.15739641,0
 .05120991,0.22102754,0.00006052,0.00021096,-0.00004891,0.00010050,-0.0
 0039081,0.00011762,-0.00124043,0.00072485,0.00007776,0.00463363,0.0011
 0132,-0.00050733,-0.01112102,0.00590333,-0.00058054,0.00182714,-0.0029
 8993,0.00015254,0.01797888,0.00189823,0.00023042,-0.01470395,-0.006730
 48,0.00004038,0.00946246,0.01378540,0.00019878,0.01261330,-0.00164653,
 0.00094366,-0.02310808,-0.02954021,0.00584570,-0.15059139,-0.00938904,
 0.00305637,-0.03980184,-0.00059266,-0.00361097,0.00014713,0.00001144,-
 0.00000135,-0.00000702,-0.00003350,0.00002083,-0.00001616,-0.00004131,
 -0.00000330,-0.00001251,0.00004987,-0.00000910,-0.00003560,0.00002162,
 -0.00000772,0.00010847,-0.00005042,0.00002377,0.00038691,-0.00014833,0
 .00011812,-0.00018107,-0.00051111,0.00023109,0.00027312,-0.00102823,0.
 00000421,-0.00020334,-0.00024499,0.00020138,0.00083898,0.00067001,-0.0
 0020368,0.00496715,0.01073989,-0.00019868,0.00002048,-0.00290134,-0.00
 024641,-0.00321227,-0.00246099,0.00198649,-0.00355818,-0.00189474,-0.0
 0046730,0.72666912,0.00000856,0.00005259,-0.00001468,0.00003520,-0.000
 08751,0.00002467,-0.00034403,0.00022322,-0.00002112,0.00116271,0.00023
 410,-0.00001794,-0.00272704,0.00152604,-0.00023808,0.00070241,-0.00076
 544,0.00011625,0.00416129,0.00050638,0.00003092,-0.00206412,-0.0058036
 0,-0.00054168,0.00881653,-0.00136036,0.00115518,0.00104893,-0.00879224
 ,0.00168498,-0.03983518,-0.00307575,0.00259925,-0.00568938,-0.11586429
 ,-0.00166488,0.01294414,0.01658851,-0.00291407,0.00003190,-0.00000193,
 -0.00000031,0.00000471,-0.00000789,0.00001692,-0.00000056,-0.00000931,
 -0.00000858,-0.00000384,0.00000968,-0.00001027,-0.00001270,-0.00000017
 ,0.00001581,0.00002597,-0.00001310,-0.00000347,0.00010900,-0.00004260,
 0.00005031,-0.00003865,-0.00009935,0.00001149,0.00014798,-0.00020780,-
 0.00007169,0.00097734,0.00103396,0.00031361,-0.00175597,-0.00011009,-0
 .00012049,0.01897905,0.00326392,-0.00405705,-0.00372656,0.00009201,0.0
 0099781,-0.00437775,-0.00147368,0.00296708,-0.00728819,-0.00033536,0.0
 0063993,-0.03601788,0.80896991,0.00000186,-0.00000835,0.00000124,-0.00
 001952,0.00001611,0.00000759,0.00005816,-0.00003888,0.00008231,-0.0001
 6068,0.00009844,0.00004416,0.00038560,-0.00065359,-0.00013717,0.000030
 33,0.00037452,-0.00020896,-0.00069354,0.00018602,-0.00118999,-0.000162
 90,0.00128923,-0.00111585,-0.00192865,-0.00109871,0.00744899,0.0007182
 3,0.00072115,0.00803017,-0.00210526,-0.00234154,-0.00195885,0.00901532
 ,-0.00381719,-0.07832775,0.00216734,0.00088343,-0.00478190,-0.00000165
 ,0.00000309,0.00000067,-0.00000539,0.00000275,-0.00001058,-0.00000063,
 -0.00000160,0.00000411,0.00000289,-0.00000329,0.00000430,0.00000564,0.
 00000614,-0.00001575,-0.00001996,-0.00001434,-0.00000049,-0.00001353,0
 .00000938,-0.00003332,0.00002849,0.00000203,0.00007867,0.00008670,0.00
 003992,0.00016094,-0.00009245,0.00002099,0.00169986,-0.00008381,0.0000
 0348,0.00085545,-0.00890888,-0.00123398,0.00158695,0.00179374,-0.00020
 385,-0.00073547,0.00330394,0.00184211,-0.00273591,0.00400422,-0.002184
 44,-0.00312856,0.05397796,-0.35657575,0.48043646,-0.00002762,-0.000089
 48,0.00002060,-0.00003871,0.00016530,-0.00005352,0.00052440,-0.0003063
 1,-0.00002625,-0.00195012,-0.00059080,0.00024406,0.00431465,-0.0016168
 2,0.00015418,-0.00106217,0.00073133,-0.00006593,-0.00638891,-0.0008722
 1,-0.00023074,0.00468369,0.00403773,0.00004344,-0.00493372,-0.00168287
 ,0.00135605,-0.00201247,0.00095705,0.00058304,-0.00225618,0.00424768,-
 0.00305889,-0.05586373,0.03121608,-0.02432143,0.00047580,-0.00769888,-
 0.00073311,-0.00006485,-0.00000693,0.00000083,0.00000526,0.00001490,-0
 .00000548,0.00000855,0.00001800,-0.00000125,0.00000351,-0.00002357,0.0
 0000166,0.00001289,-0.00001093,0.00000841,-0.00003834,0.00002064,-0.00
 001616,-0.00014867,0.00006591,-0.00004556,0.00006277,0.00020867,-0.000
 10364,-0.00014187,0.00037967,-0.00001244,-0.00033979,-0.00059228,0.000
 25074,-0.00030452,-0.00026339,-0.00003327,0.00065106,-0.00458290,-0.00
 228886,-0.00065143,0.00141026,0.00050097,-0.00004820,0.00137069,-0.000
 19854,0.00030444,0.00130432,0.00144359,-0.35142302,0.17912775,-0.13800
 353,0.37704379,0.00000902,0.00002082,-0.00000333,0.00000194,-0.0000459
 1,0.00001190,-0.00010229,0.00004061,0.00003287,0.00045093,0.00018342,-
 0.00011514,-0.00115147,0.00036799,-0.00002079,0.00017508,-0.00015144,-
 0.00001257,0.00199400,0.00062483,0.00003989,-0.00256341,-0.00036298,0.
 00034426,0.00019868,0.00161517,-0.00077661,0.00198966,0.00170676,-0.00
 049587,-0.00541381,-0.00843891,-0.00010650,0.01782365,0.01367230,0.007
 06903,-0.00245859,0.00115732,-0.00003608,0.00001624,0.00000272,-0.0000
 0004,-0.00000329,-0.00000341,-0.00000360,-0.00000365,-0.00000342,0.000
 00363,0.00000037,0.00000814,0.00000477,-0.00000108,0.00000475,-0.00000
 966,0.00001213,-0.00000276,0.00000673,0.00003532,-0.00001219,0.0000001
 9,-0.00000940,-0.00006914,0.00004675,0.00010174,-0.00015246,0.00003564
 ,-0.00001148,-0.00002055,-0.00002837,0.00023522,0.00003034,-0.00013119
 ,-0.00477562,-0.00049492,0.00343127,0.00110763,-0.00021927,-0.00057914
 ,0.00185663,-0.00011754,-0.00134800,0.00146575,-0.00012734,-0.00102601
 ,0.18010613,-0.27171688,0.13757542,-0.23072293,0.33270333,-0.00000546,
 -0.00001272,0.00000231,-0.00000031,0.00002393,-0.00001319,0.00005994,-
 0.00003369,-0.00003065,-0.00025488,-0.00012795,0.00005485,0.00055272,-
 0.00001377,-0.00000365,-0.00020806,-0.00003709,0.00006371,-0.00081157,
 -0.00022174,0.00013956,0.00105876,-0.00015426,0.00011300,-0.00016754,0
 .00052836,-0.00075263,-0.00142005,0.00009749,-0.00043197,0.00270294,0.
 00325038,-0.00000648,-0.01830201,0.00836520,0.01429584,-0.00053087,-0.
 00223853,0.00286733,-0.00001016,-0.00000216,-0.00000065,0.00000284,0.0
 0000114,0.00000381,0.00000153,0.00000412,-0.00000189,-0.00000050,-0.00
 000242,-0.00000115,0.00000006,-0.00000503,0.00000840,-0.00000246,0.000
 00769,-0.00000418,-0.00001735,0.00000613,0.00000550,0.00000257,0.00003
 430,-0.00004761,-0.00005052,0.00005375,-0.00005669,-0.00005662,-0.0001
 1557,-0.00044727,-0.00001555,-0.00002859,-0.00005507,0.00411231,0.0000
 7578,-0.00216945,-0.00092964,0.00036021,0.00046429,-0.00168301,-0.0000
 6924,0.00090906,-0.00170722,0.00067897,0.00145407,-0.13953885,0.136476
 54,-0.18050824,0.18400484,-0.21643298,0.18768013,-0.00001779,-0.000067
 01,0.00001713,-0.00003484,0.00011918,-0.00003739,0.00040690,-0.0002472
 3,-0.00000827,-0.00146835,-0.00034468,0.00011776,0.00336259,-0.0016783
 2,0.00023373,-0.00071732,0.00086926,-0.00007281,-0.00513137,-0.0002023
 1,-0.00006386,0.00426653,0.00047786,0.00016615,-0.00095048,-0.00147390
 ,-0.00020510,-0.00315842,-0.00140969,-0.00129646,-0.00450290,0.0052563
 5,0.00131282,-0.01665241,-0.04682270,0.02536713,0.00254465,-0.00169118
 ,0.00136113,-0.00004697,-0.00000372,0.00000083,0.00000121,0.00001139,-
 0.00000935,0.00000484,0.00001344,0.00000218,0.00000395,-0.00001606,0.0
 0000533,0.00001227,-0.00000560,-0.00000186,-0.00002862,0.00001768,-0.0
 0000753,-0.00012007,0.00005006,-0.00004328,0.00006048,0.00014643,-0.00
 005470,0.00000870,0.00027236,-0.00000176,-0.00000194,-0.00015554,-0.00
 008320,-0.00083900,-0.00026582,-0.00021711,-0.00220655,-0.00461323,-0.
 00105548,0.00017210,0.00086776,0.00013584,-0.00322587,0.00485134,-0.00
 088600,-0.00068696,0.00421502,0.00381443,-0.18085497,-0.12417665,0.076
 34783,0.04263868,0.04199043,-0.02645454,0.16689154,-0.00001104,-0.0000
 5638,0.00001390,-0.00003574,0.00009922,-0.00002754,0.00034310,-0.00021
 757,-0.00000462,-0.00121890,-0.00017116,0.00006506,0.00304986,-0.00206
 460,0.00025926,-0.00048949,0.00112176,-0.00008928,-0.00512315,-0.00017
 777,-0.00000224,0.00401951,0.00200860,0.00025535,-0.00352038,-0.002354
 85,-0.00090026,-0.00303477,0.00114528,-0.00171489,0.00026451,0.0038637
 1,-0.00031129,-0.03317118,-0.01729724,0.02307986,0.00502383,-0.0028903
 4,0.00157125,-0.00003515,0.00000063,-0.00000002,-0.00000297,0.00000813
 ,-0.00001316,0.00000119,0.00001100,0.00000659,0.00000454,-0.00000966,0
 .00000852,0.00001291,-0.00000283,-0.00000962,-0.00003243,0.00001424,0.
 00000160,-0.00011545,0.00003974,-0.00004357,0.00005907,0.00012059,-0.0
 0002902,0.00001197,0.00026520,0.00002577,-0.00015998,-0.00020541,-0.00
 014495,-0.00027844,-0.00015041,0.00002345,-0.01298157,-0.00416683,0.00
 274227,0.00255345,0.00037048,-0.00066050,0.00746120,-0.00139033,-0.001
 59081,0.00995471,-0.00324801,-0.00455410,-0.12215603,-0.42023804,0.223
 35611,0.02516746,-0.07227415,0.07018970,0.12413587,0.51680312,0.000003
 13,0.00002098,-0.00000660,0.00001665,-0.00003730,0.00000623,-0.0001338
 2,0.00008576,-0.00001775,0.00045642,0.00004085,0.00000276,-0.00107992,
 0.00074205,-0.00013015,0.00018818,-0.00040604,0.00008582,0.00169070,-0
 .00002820,0.00014411,-0.00117214,-0.00112612,0.00011810,0.00162862,0.0
 0129842,-0.00052107,0.00029391,0.00057239,-0.00035317,0.00301843,-0.00
 161660,0.00232257,0.01412709,0.02354641,0.00852390,-0.00380061,-0.0000
 3246,0.00015726,0.00001272,-0.00000084,-0.00000046,0.00000288,-0.00000
 427,0.00000806,-0.00000073,-0.00000261,-0.00000266,-0.00000154,0.00000
 640,-0.00000352,-0.00000638,-0.00000144,0.00000852,0.00001164,-0.00000
 266,-0.00000026,0.00004539,-0.00001712,0.00002363,-0.00002531,-0.00003
 637,-0.00001383,-0.00005421,-0.00008427,-0.00003898,-0.00000814,0.0000
 3358,-0.00015162,0.00038088,0.00007425,-0.00028632,0.00239382,0.001236
 18,-0.00400706,-0.00053439,-0.00021284,0.00061430,-0.00281579,0.000323
 31,0.00234399,0.00348920,-0.00344360,-0.00239302,0.08006114,0.22004856
 ,-0.22149123,-0.01862231,0.07276356,-0.02353991,-0.07910481,-0.3129166
 9,0.23897078,-0.00000454,-0.00001033,0.00000257,-0.00001037,0.00002300
 ,-0.00000624,0.00002338,-0.00005623,0.00000193,-0.00022420,0.00006826,
 -0.00000429,0.00012672,-0.00052783,0.00004899,0.00001746,0.00015924,-0
 .00000303,-0.00096519,0.00119836,-0.00004121,-0.00325031,-0.00252484,-
 0.00018421,-0.00044114,-0.00092112,0.00006573,-0.01514266,0.01939313,-
 0.00071567,-0.21812297,0.15066652,-0.00350161,0.00909472,-0.00494116,-
 0.00009515,0.00019476,-0.00210998,0.00005567,-0.00000488,0.00000105,-0
 .00000018,0.00000045,0.00000060,0.00000009,0.00000065,0.00000029,-0.00
 000038,-0.00000002,-0.00000271,-0.00000199,0.00000058,-0.00000053,0.00
 000205,-0.00000118,0.00000304,-0.00000086,-0.00001120,0.00000530,-0.00
 000350,0.00000475,0.00001989,-0.00000170,0.00000020,0.00007171,-0.0000
 1801,0.00001386,0.00008528,-0.00001061,0.00116352,0.00006690,0.0001480
 3,0.00062626,-0.00000848,-0.00009070,0.00010656,-0.00031394,-0.0000500
 9,-0.00009219,-0.00004554,0.00006293,-0.00011657,-0.00000039,-0.000018
 06,-0.00001696,-0.00022498,0.00027213,-0.00303516,-0.00235351,-0.00033
 132,0.00027039,0.00030348,-0.00046073,0.22979528,-0.00000293,-0.000006
 23,0.00000098,-0.00000633,0.00001364,-0.00000316,0.00001535,-0.0000337
 9,0.00000440,-0.00013532,0.00003144,-0.00000134,0.00001270,-0.00021756
 ,-0.00000398,-0.00000692,0.00004833,0.00000301,-0.00045282,0.00069562,
 -0.00002713,-0.00288879,-0.00022078,0.00022877,-0.00083897,-0.00008216
 ,-0.00002761,-0.00913191,0.01185326,-0.00015481,0.14852047,-0.19696216
 ,0.00545619,0.02214539,-0.01551335,0.00076263,-0.00278540,-0.00463935,
 0.00029904,-0.00000371,0.00000033,0.00000005,0.00000055,0.00000054,0.0
 0000009,0.00000062,0.00000023,-0.00000030,0.,-0.00000162,-0.00000153,0
 .00000060,-0.00000013,0.00000133,-0.00000033,0.00000144,-0.00000018,-0
 .00000589,0.00000311,-0.00000207,0.00000370,0.00001291,-0.00000281,0.0
 0002195,0.00001224,-0.00000561,0.00007135,0.00002742,-0.00002576,0.000
 26685,0.00065510,-0.00016156,0.00146458,0.00063592,-0.00002674,0.00022
 327,-0.00066443,-0.00015443,-0.00023084,-0.00021733,0.00022550,-0.0002
 7429,-0.00007226,-0.00008340,0.00354549,-0.00249492,0.00174520,-0.0013
 8315,0.00207475,-0.00065794,-0.00012078,0.00104387,-0.00082327,-0.1580
 2450,0.20401591,0.00000038,0.00000077,0.00000024,-0.00000075,0.0000015
 2,0.00000621,-0.00001077,0.00000129,0.00002295,0.00002772,0.00001337,-
 0.00002471,-0.00003604,-0.00001989,-0.00027134,0.00002789,0.00000351,0
 .00003013,0.00000647,-0.00004988,-0.00006687,0.00011368,-0.00024882,0.
 00760793,0.00037817,0.00008619,-0.00116915,-0.00035482,-0.00025948,0.0
 0462389,-0.00389865,0.00548617,-0.03946193,0.00093504,0.00094308,0.005
 14122,0.00000618,0.00030242,0.00482686,0.00000105,0.00000043,0.0000003
 2,-0.00000112,0.00000078,-0.00000129,0.00000044,-0.00000158,-0.0000002
 5,0.00000004,-0.00000179,-0.00000101,0.00000030,0.00000131,-0.00000253
 ,-0.00000230,-0.00000161,-0.00000033,0.00000477,0.00000083,-0.00000247
 ,-0.00000049,-0.00000003,0.00001390,-0.00000906,0.00001566,0.00009242,
 -0.00003597,0.00000602,-0.00038408,0.00007568,-0.00012793,-0.00454250,
 0.00020042,-0.00003275,0.00095666,-0.00017471,0.00029697,-0.00014794,-
 0.00013873,-0.00010481,-0.00000113,-0.00005989,-0.00003277,-0.00009671
 ,-0.00186408,-0.00088927,-0.00406184,-0.00079152,-0.00024004,0.0000088
 2,0.00072125,0.00141387,-0.00037242,0.00487940,-0.00656356,0.02727694\
 \0.00000086,-0.00000578,-0.00000103,-0.00000247,0.00000119,0.00000090,
 0.00000322,-0.00000531,0.00000107,0.00000569,0.00000736,-0.00000592,-0
 .00000957,-0.00000260,-0.00000231,0.00000474,-0.00000054,-0.00000198,0
 .00000072,-0.00000021,0.00001064,0.00000244,0.00000206,-0.00000319,-0.
 00000293,-0.00000278,-0.00000112,0.00000175,0.00000155,0.00000656,0.00
 000476,0.00000012,0.00000588,-0.00000237,0.00000076,0.00000339,-0.0000
 0285,0.00000405,-0.00000089,-0.00000015,-0.00000259,-0.00000071,0.0000
 0112,-0.00000468,-0.00000466,-0.00000022,0.00000116,-0.00000417,0.0000
 0136,-0.00000560,0.00000379,0.00000059,0.00000162,0.00000303,-0.000000
 92,0.00000194,-0.00000417,-0.00000015,-0.00000623,-0.00000427,-0.00000
 107,-0.00000293,0.00000661,0.00000052,-0.00000201,0.00000665,-0.000001
 06,0.00000018,-0.00000439,0.00000015,0.00000136,0.00000960,-0.00000212
 ,-0.00000055,-0.00000428,-0.00000110,0.00000480,-0.00000912,0.00000289
 ,-0.00000211,-0.00001390,-0.00000147,0.00000574,-0.00000385,0.00000828
 ,0.00000513,-0.00000208,-0.00000738,0.00000452,0.00000458,-0.00000283,
 -0.00000328,0.00000006,-0.00000043,0.00000368,0.00000927\\\@


 ON INDUCTION, OR "WHY DO YOU BELIEVE THE SUN WILL RISE TOMORROW?":

 ... THE FARMER WHO HAS FED THE CHICKEN EVERY DAY THROUGHOUT ITS
 LIFE AT LAST WRINGS ITS NECK INSTEAD, SHOWING THAT MORE REFINED VIEWS
 AS TO THE UNIFORMITY OF NATURE WOULD HAVE BEEN USEFUL TO THE CHICKEN.

                               -- BERTRAND RUSSELL
 Job cpu time:       0 days  3 hours 57 minutes 16.1 seconds.
 File lengths (MBytes):  RWF=    695 Int=      0 D2E=      0 Chk=     20 Scr=      1
 Normal termination of Gaussian 09 at Fri Feb 22 17:50:21 2019.
WARNING: pbs_rusage is deprecated and values produced may not be accurate


=============================================================================
                                     Resource usage:
                                       CPU time:              23:53:34
   JobId:    6004323.r-man2            Elapsed time:          06:00:59
   Project:             q95            Requested time:        40:00:00
   Service Units:     24.07 
                                       Max physical memory:      874MB
                                       Max virtual memory:      1849MB
                                       Requested memory:           0MB

                                       Number of cpus:               4

                                       Max jobfs disk use:       0.7GB
                                       Requested jobfs:         20.0GB
=============================================================================

