 Entering Gaussian System, Link 0=/apps/gaussian/g09e01/g09/g09
 AtFile(1): /home/507/hio507/Basis/6-31pGd.gbs
 Initial command:
 /apps/gaussian/g09e01/g09/l1.exe "/jobfs/local/5976058.r-man2/Gau-27895.inp" -scrdir="/jobfs/local/5976058.r-man2/"
 Entering Link 1 = /apps/gaussian/g09e01/g09/l1.exe PID=     27896.
  
 Copyright (c) 1988,1990,1992,1993,1995,1998,2003,2009,2015,
            Gaussian, Inc.  All Rights Reserved.
  
 This is part of the Gaussian(R) 09 program.  It is based on
 the Gaussian(R) 03 system (copyright 2003, Gaussian, Inc.),
 the Gaussian(R) 98 system (copyright 1998, Gaussian, Inc.),
 the Gaussian(R) 94 system (copyright 1995, Gaussian, Inc.),
 the Gaussian 92(TM) system (copyright 1992, Gaussian, Inc.),
 the Gaussian 90(TM) system (copyright 1990, Gaussian, Inc.),
 the Gaussian 88(TM) system (copyright 1988, Gaussian, Inc.),
 the Gaussian 86(TM) system (copyright 1986, Carnegie Mellon
 University), and the Gaussian 82(TM) system (copyright 1983,
 Carnegie Mellon University). Gaussian is a federally registered
 trademark of Gaussian, Inc.
  
 This software contains proprietary and confidential information,
 including trade secrets, belonging to Gaussian, Inc.
  
 This software is provided under written license and may be
 used, copied, transmitted, or stored only in accord with that
 written license.
  
 The following legend is applicable only to US Government
 contracts under FAR:
  
                    RESTRICTED RIGHTS LEGEND
  
 Use, reproduction and disclosure by the US Government is
 subject to restrictions as set forth in subparagraphs (a)
 and (c) of the Commercial Computer Software - Restricted
 Rights clause in FAR 52.227-19.
  
 Gaussian, Inc.
 340 Quinnipiac St., Bldg. 40, Wallingford CT 06492
  
  
 ---------------------------------------------------------------
 Warning -- This program may not be used in any manner that
 competes with the business of Gaussian, Inc. or will provide
 assistance to any competitor of Gaussian, Inc.  The licensee
 of this program is prohibited from giving any competitor of
 Gaussian, Inc. access to this program.  By using this program,
 the user acknowledges that Gaussian, Inc. is engaged in the
 business of creating and licensing software in the field of
 computational chemistry and represents and warrants to the
 licensee that it is not a competitor of Gaussian, Inc. and that
 it will not use this program in any manner prohibited above.
 ---------------------------------------------------------------
  

 Cite this work as:
 Gaussian 09, Revision E.01,
 M. J. Frisch, G. W. Trucks, H. B. Schlegel, G. E. Scuseria, 
 M. A. Robb, J. R. Cheeseman, G. Scalmani, V. Barone, B. Mennucci, 
 G. A. Petersson, H. Nakatsuji, M. Caricato, X. Li, H. P. Hratchian, 
 A. F. Izmaylov, J. Bloino, G. Zheng, J. L. Sonnenberg, M. Hada, 
 M. Ehara, K. Toyota, R. Fukuda, J. Hasegawa, M. Ishida, T. Nakajima, 
 Y. Honda, O. Kitao, H. Nakai, T. Vreven, J. A. Montgomery, Jr., 
 J. E. Peralta, F. Ogliaro, M. Bearpark, J. J. Heyd, E. Brothers, 
 K. N. Kudin, V. N. Staroverov, T. Keith, R. Kobayashi, J. Normand, 
 K. Raghavachari, A. Rendell, J. C. Burant, S. S. Iyengar, J. Tomasi, 
 M. Cossi, N. Rega, J. M. Millam, M. Klene, J. E. Knox, J. B. Cross, 
 V. Bakken, C. Adamo, J. Jaramillo, R. Gomperts, R. E. Stratmann, 
 O. Yazyev, A. J. Austin, R. Cammi, C. Pomelli, J. W. Ochterski, 
 R. L. Martin, K. Morokuma, V. G. Zakrzewski, G. A. Voth, 
 P. Salvador, J. J. Dannenberg, S. Dapprich, A. D. Daniels, 
 O. Farkas, J. B. Foresman, J. V. Ortiz, J. Cioslowski, 
 and D. J. Fox, Gaussian, Inc., Wallingford CT, 2013.
 
 ******************************************
 Gaussian 09:  ES64L-G09RevE.01 30-Nov-2015
                21-Feb-2019 
 ******************************************
 %chk=3TMF4Nitro_EtO.M062X_6-31pGd_bsse.chk
 %mem=196608000
 %nproc=4
 Will use up to    4 processors via shared memory.
 ----------------------------------------------------------------------
 # M062X/Gen 6D SCF=Tight INT(grid=ultrafine) Counterpoise=2 maxdisk=67
 1088640
 ----------------------------------------------------------------------
 1/38=1,62=2/1;
 2/12=2,17=6,18=5,40=1/2;
 1/38=1,53=2,62=2,63=1/22;
 3/5=7,8=2,11=2,16=1,25=1,30=1,74=-55,75=-5/1,2,3;
 4//1;
 5/5=2,32=2,38=5/2;
 6/7=2,8=2,9=2,10=2,28=1/1;
 1/53=2,62=2,63=1/22;
 3/5=7,6=11,8=2,11=2,16=1,25=1,30=1,74=-55,75=-5,82=7/1,2,3;
 4//1;
 5/5=2,32=2,38=5/2;
 6/7=2,8=2,9=2,10=2,28=1/1;
 1/53=2,62=2,63=1/22(-4);
 99/5=1,9=1/99;
 ---------------------------------
 3TMF4Nitro_EtO.M062X_6-31pGd_bsse
 ---------------------------------
 Symbolic Z-matrix:
 Charge = -1 Multiplicity = 1 in supermolecule
 Charge =  0 Multiplicity = 1 in fragment      1.
 Charge = -1 Multiplicity = 1 in fragment      2.
 C(Fragment=1)        -2.17224   2.33649   0.02882 
 C(Fragment=1)        -0.80727   1.65583  -0.03805 
 C(Fragment=1)         0.32885   2.67031   0.02414 
 N(Fragment=1)         1.6013    1.98626  -0.04184 
 C(Fragment=1)         2.75087   2.69059   0.00227 
 O(Fragment=1)         2.79886   3.91781   0.09747 
 N(Fragment=1)         3.88214   1.87267  -0.07163 
 C(Fragment=1)         5.19125   2.26127  -0.05057 
 C(Fragment=1)         5.62835   3.60589   0.01913 
 C(Fragment=1)         6.16424   1.23951  -0.12265 
 C(Fragment=1)         7.50641   1.5542   -0.09879 
 C(Fragment=1)         7.9284    2.88043   0.00958 
 C(Fragment=1)         6.97954   3.91745   0.0572 
 H(Fragment=1)        -2.98512   1.6045   -0.01592 
 H(Fragment=1)        -2.30494   3.03647  -0.80461 
 H(Fragment=1)        -2.28388   2.90533   0.95947 
 H(Fragment=1)        -0.71534   1.06982  -0.9601 
 H(Fragment=1)        -0.69459   0.93992   0.78464 
 H(Fragment=1)         0.26694   3.25783   0.95139 
 H(Fragment=1)         0.24564   3.38887  -0.80394 
 H(Fragment=1)         1.60614   0.95087  -0.12337 
 H(Fragment=1)         3.72866   0.8391   -0.14337 
 H(Fragment=1)         4.88488   4.38978   0.02812 
 H(Fragment=1)         5.83085   0.20694  -0.1905 
 C(Fragment=1)         7.33652   5.39221   0.07087 
 F(Fragment=1)         6.26593   6.15135  -0.23457 
 F(Fragment=1)         8.27475   5.69805  -0.84308 
 F(Fragment=1)         7.76266   5.82555   1.26657 
 N(Fragment=1)         9.36182   3.103     0.11273 
 O(Fragment=1)         10.10805   2.23612  -0.3279 
 O(Fragment=1)         9.75356   4.12234   0.6579 
 H(Fragment=1)         8.25837   0.77524  -0.14675 
 O(Fragment=2)         1.49185  -0.80297  -0.25733 
 O(Fragment=2)         3.73566  -0.8609   -0.25955 
 C(Fragment=2)         2.59567  -1.40198  -0.29839 
 C(Fragment=2)         2.5373   -2.93296  -0.40585 
 C(Fragment=2)         3.89844  -3.616    -0.45146 
 H(Fragment=2)         1.94695  -3.16863  -1.29991 
 H(Fragment=2)         1.94386  -3.29107   0.44441 
 H(Fragment=2)         4.48056  -3.26085  -1.30668 
 H(Fragment=2)         3.79281  -4.70494  -0.52833 
 H(Fragment=2)         4.47734  -3.38441   0.44725 
 
                          Input orientation:                          
 ---------------------------------------------------------------------
 Center     Atomic      Atomic             Coordinates (Angstroms)
 Number     Number       Type             X           Y           Z
 ---------------------------------------------------------------------
      1          6           0       -2.172239    2.336485    0.028817
      2          6           0       -0.807270    1.655833   -0.038052
      3          6           0        0.328847    2.670311    0.024136
      4          7           0        1.601303    1.986265   -0.041843
      5          6           0        2.750874    2.690595    0.002266
      6          8           0        2.798858    3.917810    0.097466
      7          7           0        3.882145    1.872673   -0.071629
      8          6           0        5.191255    2.261269   -0.050571
      9          6           0        5.628347    3.605888    0.019129
     10          6           0        6.164236    1.239509   -0.122647
     11          6           0        7.506408    1.554203   -0.098786
     12          6           0        7.928405    2.880429    0.009577
     13          6           0        6.979545    3.917446    0.057203
     14          1           0       -2.985120    1.604497   -0.015919
     15          1           0       -2.304941    3.036472   -0.804611
     16          1           0       -2.283880    2.905334    0.959472
     17          1           0       -0.715338    1.069821   -0.960100
     18          1           0       -0.694593    0.939924    0.784643
     19          1           0        0.266935    3.257830    0.951389
     20          1           0        0.245641    3.388874   -0.803944
     21          1           0        1.606139    0.950874   -0.123368
     22          1           0        3.728665    0.839100   -0.143367
     23          1           0        4.884878    4.389780    0.028124
     24          1           0        5.830852    0.206939   -0.190505
     25          6           0        7.336521    5.392213    0.070875
     26          9           0        6.265935    6.151346   -0.234572
     27          9           0        8.274752    5.698053   -0.843082
     28          9           0        7.762660    5.825553    1.266574
     29          7           0        9.361820    3.103002    0.112734
     30          8           0       10.108047    2.236124   -0.327903
     31          8           0        9.753559    4.122340    0.657903
     32          1           0        8.258374    0.775244   -0.146750
     33          8           0        1.491854   -0.802966   -0.257332
     34          8           0        3.735656   -0.860904   -0.259548
     35          6           0        2.595674   -1.401978   -0.298390
     36          6           0        2.537300   -2.932959   -0.405854
     37          6           0        3.898442   -3.615999   -0.451457
     38          1           0        1.946954   -3.168632   -1.299909
     39          1           0        1.943860   -3.291071    0.444415
     40          1           0        4.480556   -3.260851   -1.306680
     41          1           0        3.792808   -4.704936   -0.528329
     42          1           0        4.477336   -3.384410    0.447246
 ---------------------------------------------------------------------
                    Distance matrix (angstroms):
                    1          2          3          4          5
     1  C    0.000000
     2  C    1.526729   0.000000
     3  C    2.523271   1.524401   0.000000
     4  N    3.790418   2.431137   1.446173   0.000000
     5  C    4.935903   3.705772   2.422210   1.348903   0.000000
     6  O    5.217002   4.258998   2.768137   2.276930   1.231837
     7  N    6.072955   4.694546   3.642983   2.283862   1.397938
     8  C    7.364306   6.029014   4.880154   3.600480   2.478421
     9  C    7.903203   6.724816   5.381452   4.340965   3.019586
    10  C    8.409703   6.984438   6.010033   4.624340   3.711104
    11  C    9.711048   8.314521   7.264859   5.921163   4.890470
    12  C   10.115298   8.821220   7.602475   6.390179   5.181015
    13  C    9.287378   8.109159   6.766699   5.715308   4.403389
    14  H    1.094798   2.178567   3.481371   4.602358   5.837942
    15  H    1.096446   2.176418   2.785271   4.116248   5.131466
    16  H    1.096435   2.176392   2.785037   4.116062   5.129435
    17  H    2.169091   1.096373   2.149561   2.655163   3.945590
    18  H    2.169123   1.096380   2.149428   2.655004   3.943121
    19  H    2.765789   2.167788   1.099458   2.093783   2.718923
    20  H    2.765349   2.167635   1.099532   2.094261   2.722822
    21  H    4.027309   2.515708   2.147020   1.038606   2.086344
    22  H    6.090359   4.610081   3.865249   2.419082   2.098884
    23  H    7.349756   6.315014   4.869702   4.069845   2.727979
    24  H    8.284476   6.796117   6.032108   4.590989   3.961309
    25  C    9.987781   8.960678   7.517874   6.671275   5.322745
    26  F    9.264195   8.383226   6.887201   6.256503   4.938476
    27  F   11.009085   9.973502   8.547320   7.678168   6.346073
    28  F   10.602257   9.619372   8.170726   7.376612   6.045200
    29  N   11.559805  10.272654   9.043763   7.841977   6.624718
    30  O   12.285876  10.934574   9.795162   8.515219   7.378588
    31  O   12.075168  10.867342   9.556947   8.456461   7.177559
    32  H   10.548270   9.108960   8.154623   6.767139   5.832952
    33  O    4.833592   3.373388   3.673617   2.799682   3.722565
    34  O    6.723815   5.198193   4.914907   3.565000   3.694792
    35  C    6.067633   4.582359   4.671838   3.540449   4.106535
    36  C    7.080659   5.690205   6.038111   5.020692   5.642387
    37  C    8.515627   7.078618   7.244714   6.068771   6.426188
    38  H    7.002827   5.696796   6.201986   5.317440   6.055781
    39  H    6.984582   5.680964   6.190556   5.310750   6.052032
    40  H    8.796216   7.331051   7.361145   6.117364   6.334418
    41  H    9.245205   7.865142   8.166916   7.057728   7.487391
    42  H    8.781832   7.318923   7.351778   6.111867   6.331222
                    6          7          8          9         10
     6  O    0.000000
     7  N    2.320493   0.000000
     8  C    2.913693   1.365730   0.000000
     9  C    2.847708   2.462010   1.415595   0.000000
    10  C    4.306682   2.368847   1.412756   2.430437   0.000000
    11  C    5.271260   3.638330   2.421198   2.783959   1.378777
    12  C    5.234132   4.170658   2.806950   2.411773   2.412963
    13  C    4.180881   3.713702   2.439778   1.387174   2.805070
    14  H    6.230463   6.872725   8.202783   8.842998   9.157255
    15  H    5.257305   6.338116   7.573801   7.996239   8.684532
    16  H    5.253797   6.336357   7.570511   7.998647   8.678514
    17  H    4.645326   4.750873   6.093818   6.901656   6.932435
    18  H    4.641575   4.748658   6.089888   6.904560   6.925060
    19  H    2.752343   4.004368   5.123083   5.452980   6.324976
    20  H    2.758845   4.007407   5.128173   5.449593   6.333537
    21  H    3.205316   2.456133   3.817785   4.821572   4.567226
    22  H    3.225057   1.047365   2.042142   3.360106   2.468352
    23  H    2.139870   2.711320   2.151888   1.080424   3.403483
    24  H    4.800675   2.566371   2.156139   3.411423   1.087176
    25  C    4.771264   4.933578   3.797332   2.472144   4.319335
    26  F    4.137578   4.900617   4.039987   2.636331   4.914164
    27  F    5.834321   5.875684   4.684817   3.481956   4.985169
    28  F    5.444780   5.698636   4.588150   3.322397   5.051405
    29  N    6.613366   5.619122   4.257792   3.768351   3.708443
    30  O    7.512207   6.241765   4.924672   4.697275   4.072962
    31  O    6.980243   6.329828   4.977966   4.206201   4.669391
    32  H    6.304100   4.512358   3.409508   3.867441   2.145120
    33  O    4.911197   3.592633   4.808102   6.051859   5.101078
    34  O    4.882741   2.743941   3.451145   4.859235   3.213795
    35  C    5.338363   3.525587   4.496423   5.863159   4.443306
    36  C    6.874211   5.001440   5.843774   7.245115   5.535734
    37  C    7.633392   5.501822   6.031115   7.441080   5.368230
    38  H    7.272967   5.537905   6.447492   7.822189   6.213141
    39  H    7.267692   5.539629   6.451283   7.830986   6.217659
    40  H    7.505525   5.313804   5.707601   7.087122   4.948733
    41  H    8.702373   6.594049   7.121229   8.528699   6.412852
    42  H    7.500804   5.316052   5.712372   7.097350   4.954901
                   11         12         13         14         15
    11  C    0.000000
    12  C    1.395958   0.000000
    13  C    2.426280   1.406417   0.000000
    14  H   10.491975  10.987887  10.229839   0.000000
    15  H    9.947757  10.266870   9.365923   1.770659   0.000000
    16  H    9.939577  10.256396   9.362130   1.770679   1.769076
    17  H    8.280917   8.884417   8.267713   2.515803   2.533522
    18  H    8.271287   8.872563   8.263606   2.515764   3.084552
    19  H    7.511003   7.728360   6.803953   3.774263   3.122032
    20  H    7.522100   7.742428   6.809289   3.773963   2.574812
    21  H    5.931086   6.611497   6.140573   4.638795   4.484457
    22  H    3.845088   4.672069   4.481591   6.758474   6.455237
    23  H    3.863810   3.397285   2.147458   8.348449   7.363313
    24  H    2.151980   3.404013   3.892135   8.927766   8.635653
    25  C    3.845513   2.581307   1.517418  10.995026   9.963623
    26  F    4.763501   3.677270   2.363193  10.310366   9.137138
    27  F    4.279699   2.964117   2.378789  12.009417  10.909417
    28  F    4.491582   3.206442   2.390966  11.617955  10.650135
    29  N    2.426123   1.454255   2.518260  12.438206  11.702959
    30  O    2.699267   2.297795   3.572489  13.112105  12.447895
    31  O    3.495368   2.300839   2.845694  13.002596  12.195305
    32  H    1.083758   2.136614   3.398593  11.274792  10.822641
    33  O    6.461906   7.420769   7.245410   5.088954   5.427380
    34  O    4.480753   5.625756   5.784096   7.162848   7.209400
    35  C    5.735342   6.846302   6.902248   6.345387   6.631148
    36  C    6.702308   7.939273   8.177774   7.158049   7.696779
    37  C    6.314489   7.658767   8.155042   8.650242   9.102859
    38  H    7.392928   8.607186   8.796660   6.982602   7.538385
    39  H    7.396869   8.607628   8.801747   6.962279   7.723353
    40  H    5.813736   7.164880   7.722245   9.004110   9.270994
    41  H    7.290552   8.656226   9.211058   9.274255   9.858411
    42  H    5.819220   7.165866   7.728537   8.988435   9.423065
                   16         17         18         19         20
    16  H    0.000000
    17  H    3.084508   0.000000
    18  H    2.533620   1.749695   0.000000
    19  H    2.575068   3.066926   2.514961   0.000000
    20  H    3.121205   2.515128   3.066758   1.760346   0.000000
    21  H    4.486056   2.470531   2.473453   2.875867   2.873670
    22  H    6.452617   4.524317   4.520683   4.362604   4.366825
    23  H    7.379842   6.584917   6.603357   4.843462   4.818368
    24  H    8.628595   6.647514   6.638494   6.447404   6.457213
    25  C    9.976286   9.196653   9.210382   7.437065   7.420193
    26  F    9.222888   8.665244   8.754808   6.765126   6.648261
    27  F   11.069470  10.112167  10.282919   8.561538   8.354667
    28  F   10.466850   9.972538   9.778893   7.929592   8.168845
    29  N   11.678114  10.336048  10.308336   9.134781   9.166609
    30  O   12.476579  10.904384  10.936861   9.976370   9.940951
    31  O   12.102560  11.024228  10.922807   9.530453   9.647563
    32  H   10.812036   9.015310   9.002790   8.439919   8.453807
    33  O    5.430309   2.978743   2.983945   4.410385   4.407193
    34  O    7.204538   4.902022   4.894939   5.519272   5.526046
    35  C    6.629117   4.184549   4.181306   5.357124   5.360084
    36  C    7.693734   5.187397   5.182821   6.732201   6.736152
    37  C    9.096130   6.595649   6.586375   7.899705   7.907935
    38  H    7.739367   5.016747   5.310683   7.013574   6.792741
    39  H    7.518942   5.297299   4.997850   6.779174   7.004570
    40  H    9.429468   6.772899   6.985865   8.083730   7.899753
    41  H    9.851694   7.338775   7.329741   8.833288   8.841273
    42  H    9.248637   6.984602   6.750004   7.880418   8.083940
                   21         22         23         24         25
    21  H    0.000000
    22  H    2.125561   0.000000
    23  H    4.753856   3.738123   0.000000
    24  H    4.290239   2.195687   4.294046   0.000000
    25  C    7.252620   5.813206   2.649010   5.405777   0.000000
    26  F    6.983621   5.887785   2.253761   5.960471   1.347493
    27  F    8.217304   6.690734   3.736552   6.045728   1.345039
    28  F    7.974784   6.567021   3.446278   6.117498   1.341296
    29  N    8.052203   6.076452   4.658966   4.576775   3.056807
    30  O    8.600939   6.533166   5.660962   4.736124   4.219156
    31  O    8.777758   6.908042   4.916523   5.606942   2.792713
    32  H    6.654594   4.530161   4.947315   2.493541   4.713128
    33  O    1.762658   2.777173   6.209565   4.455477   8.523385
    34  O    2.799273   1.703984   5.382671   2.352637   7.223356
    35  C    2.558461   2.515975   6.236307   3.614779   8.292949
    36  C    4.003875   3.964426   7.702075   4.555526   9.621241
    37  C    5.120412   4.468965   8.080566   4.291522   9.656143
    38  H    4.297759   4.535857   8.217339   5.264022  10.208553
    39  H    4.293079   4.537546   8.235190   5.267627  10.228379
    40  H    5.234610   4.327614   7.776718   3.885192   9.215732
    41  H    6.077310   5.557755   9.176934   5.328627  10.717712
    42  H    5.231067   4.329824   7.796139   3.890568   9.238274
                   26         27         28         29         30
    26  F    0.000000
    27  F    2.147348   0.000000
    28  F    2.144707   2.174659   0.000000
    29  N    4.358615   2.971462   3.361687   0.000000
    30  O    5.486301   3.951117   4.574625   1.225762   0.000000
    31  O    4.132420   2.631102   2.689812   1.220541   2.157611
    32  H    5.734108   4.971840   5.267716   2.589089   2.363954
    33  O    8.435331   9.413503   9.251084   8.793741   9.136730
    34  O    7.454836   7.997738   7.953270   6.892377   7.085451
    35  C    8.398070   9.108185   9.021311   8.139078   8.347000
    36  C    9.821234  10.373229  10.335034   9.125559   9.167426
    37  C   10.052516  10.298398  10.345371   8.678236   8.533570
    38  H   10.327174  10.902652  11.013838   9.813724   9.836648
    39  H   10.406756  11.069877  10.846529   9.798995   9.889404
    40  H    9.639836   9.740267   9.997829   8.144943   7.927383
    41  H   11.138290  11.331772  11.396166   9.611906   9.386199
    42  H    9.725976   9.928567   9.812648   8.127521   7.993508
                   31         32         33         34         35
    31  O    0.000000
    32  H    3.753145   0.000000
    33  O    9.661887   6.949012   0.000000
    34  O    7.866994   4.810892   2.244551   0.000000
    35  C    9.092189   6.068728   1.256551   1.262469   0.000000
    36  C   10.148064   6.822653   2.377370   2.398098   1.535858
    37  C    9.767035   6.195552   3.707088   2.766564   2.573426
    38  H   10.859760   7.531133   2.624969   3.099583   2.131888
    39  H   10.770127   7.533756   2.624390   3.100291   2.131969
    40  H    9.283085   5.648665   4.009324   2.722335   2.832815
    41  H   10.717206   7.079495   4.537973   3.853841   3.520729
    42  H    9.177919   5.652593   4.009163   2.723551   2.833137
                   36         37         38         39         40
    36  C    0.000000
    37  C    1.523591   0.000000
    38  H    1.096990   2.174469   0.000000
    39  H    1.096983   2.174523   1.748618   0.000000
    40  H    2.166852   1.093798   2.535289   3.082543   0.000000
    41  H    2.175133   1.096746   2.522448   2.522667   1.778822
    42  H    2.166871   1.093810   3.082523   2.535196   1.758276
                   41         42
    41  H    0.000000
    42  H    1.778796   0.000000
 Stoichiometry    C14H17F3N3O5(1-)
 Framework group  C1[X(C14H17F3N3O5)]
 Deg. of freedom   120
 Full point group                 C1      NOp   1
 Largest Abelian subgroup         C1      NOp   1
 Largest concise Abelian subgroup C1      NOp   1
                         Standard orientation:                         
 ---------------------------------------------------------------------
 Center     Atomic      Atomic             Coordinates (Angstroms)
 Number     Number       Type             X           Y           Z
 ---------------------------------------------------------------------
      1          6           0        5.945442   -3.524379    0.051264
      2          6           0        5.093703   -2.257448    0.033239
      3          6           0        3.604462   -2.582953    0.030621
      4          7           0        2.834893   -1.358663    0.013478
      5          6           0        1.486861   -1.407124    0.013491
      6          8           0        0.839290   -2.454928    0.026941
      7          7           0        0.906200   -0.135593   -0.002993
      8          6           0       -0.424891    0.170040   -0.004573
      9          6           0       -1.468067   -0.786693   -0.023407
     10          6           0       -0.767683    1.540577   -0.006073
     11          6           0       -2.091334    1.926499    0.000144
     12          6           0       -3.113516    0.976023    0.021072
     13          6           0       -2.798469   -0.394446   -0.002777
     14          1           0        7.014002   -3.286137    0.053305
     15          1           0        5.742565   -4.148315   -0.827222
     16          1           0        5.734701   -4.128399    0.941724
     17          1           0        5.329767   -1.648732   -0.847541
     18          1           0        5.322161   -1.628905    0.902025
     19          1           0        3.341366   -3.178509    0.916567
     20          1           0        3.349212   -3.198975   -0.843642
     21          1           0        3.341831   -0.452262    0.001041
     22          1           0        1.549755    0.690726   -0.006181
     23          1           0       -1.206274   -1.833951   -0.068447
     24          1           0        0.031862    2.277245   -0.005906
     25          6           0       -3.834130   -1.500328   -0.086376
     26          9           0       -3.265810   -2.668497   -0.444328
     27          9           0       -4.773129   -1.250073   -1.016314
     28          9           0       -4.454528   -1.737638    1.078899
     29          7           0       -4.473761    1.482169    0.112766
     30          8           0       -4.683986    2.628385   -0.267349
     31          8           0       -5.332200    0.757485    0.589877
     32          1           0       -2.361755    2.975960    0.005993
     33          8           0        4.307014    1.022555   -0.016211
     34          8           0        2.382378    2.177430   -0.008969
     35          6           0        3.641700    2.088518   -0.014566
     36          6           0        4.447921    3.395742   -0.020066
     37          6           0        3.600036    4.661605   -0.016723
     38          1           0        5.104924    3.362721   -0.897929
     39          1           0        5.114417    3.364361    0.850663
     40          1           0        2.945006    4.690280   -0.892228
     41          1           0        4.229297    5.559860   -0.021231
     42          1           0        2.954866    4.692263    0.866020
 ---------------------------------------------------------------------
 Rotational constants (GHZ):      0.2935426      0.1027604      0.0775245
 Counterpoise: doing full dimer calculation.
 General basis read from cards:  (6D, 7F)
 There are   509 symmetry adapted cartesian basis functions of A   symmetry.
 There are   509 symmetry adapted basis functions of A   symmetry.
   509 basis functions,   868 primitive gaussians,   509 cartesian basis functions
    95 alpha electrons       95 beta electrons
       nuclear repulsion energy      2262.2453499826 Hartrees.
 NAtoms=   42 NActive=   42 NUniq=   42 SFac= 1.00D+00 NAtFMM=   60 NAOKFM=F Big=F
 Integral buffers will be    131072 words long.
 Raffenetti 2 integral format.
 Two-electron integral symmetry is turned on.
 One-electron integrals computed using PRISM.
 NBasis=   509 RedAO= T EigKep=  1.85D-06  NBF=   509
 NBsUse=   506 1.00D-06 EigRej=  9.94D-07 NBFU=   506
 ExpMin= 4.38D-02 ExpMax= 7.00D+03 ExpMxC= 1.05D+03 IAcc=3 IRadAn=         5 AccDes= 0.00D+00
 Harris functional with IExCor= 1009 and IRadAn=       5 diagonalized for initial guess.
 HarFok:  IExCor= 1009 AccDes= 0.00D+00 IRadAn=         5 IDoV= 1 UseB2=F ITyADJ=14
 ICtDFT=  3500011 ScaDFX=  1.000000  1.000000  1.000000  1.000000
 FoFCou: FMM=F IPFlag=           0 FMFlag=      100000 FMFlg1=           0
         NFxFlg=           0 DoJE=T BraDBF=F KetDBF=T FulRan=T
         wScrn=  0.000000 ICntrl=     500 IOpCl=  0 I1Cent=   200000004 NGrid=           0
         NMat0=    1 NMatS0=      1 NMatT0=    0 NMatD0=    1 NMtDS0=    0 NMtDT0=    0
 Petite list used in FoFCou.
 Requested convergence on RMS density matrix=1.00D-08 within 128 cycles.
 Requested convergence on MAX density matrix=1.00D-06.
 Requested convergence on             energy=1.00D-06.
 No special actions if energy rises.
 SCF Done:  E(RM062X) =  -1383.20790297     A.U. after   16 cycles
            NFock= 16  Conv=0.58D-08     -V/T= 2.0081

 **********************************************************************

            Population analysis using the SCF density.

 **********************************************************************

 Orbital symmetries:
       Occupied  (A) (A) (A) (A) (A) (A) (A) (A) (A) (A) (A) (A)
                 (A) (A) (A) (A) (A) (A) (A) (A) (A) (A) (A) (A)
                 (A) (A) (A) (A) (A) (A) (A) (A) (A) (A) (A) (A)
                 (A) (A) (A) (A) (A) (A) (A) (A) (A) (A) (A) (A)
                 (A) (A) (A) (A) (A) (A) (A) (A) (A) (A) (A) (A)
                 (A) (A) (A) (A) (A) (A) (A) (A) (A) (A) (A) (A)
                 (A) (A) (A) (A) (A) (A) (A) (A) (A) (A) (A) (A)
                 (A) (A) (A) (A) (A) (A) (A) (A) (A) (A) (A)
       Virtual   (A) (A) (A) (A) (A) (A) (A) (A) (A) (A) (A) (A)
                 (A) (A) (A) (A) (A) (A) (A) (A) (A) (A) (A) (A)
                 (A) (A) (A) (A) (A) (A) (A) (A) (A) (A) (A) (A)
                 (A) (A) (A) (A) (A) (A) (A) (A) (A) (A) (A) (A)
                 (A) (A) (A) (A) (A) (A) (A) (A) (A) (A) (A) (A)
                 (A) (A) (A) (A) (A) (A) (A) (A) (A) (A) (A) (A)
                 (A) (A) (A) (A) (A) (A) (A) (A) (A) (A) (A) (A)
                 (A) (A) (A) (A) (A) (A) (A) (A) (A) (A) (A) (A)
                 (A) (A) (A) (A) (A) (A) (A) (A) (A) (A) (A) (A)
                 (A) (A) (A) (A) (A) (A) (A) (A) (A) (A) (A) (A)
                 (A) (A) (A) (A) (A) (A) (A) (A) (A) (A) (A) (A)
                 (A) (A) (A) (A) (A) (A) (A) (A) (A) (A) (A) (A)
                 (A) (A) (A) (A) (A) (A) (A) (A) (A) (A) (A) (A)
                 (A) (A) (A) (A) (A) (A) (A) (A) (A) (A) (A) (A)
                 (A) (A) (A) (A) (A) (A) (A) (A) (A) (A) (A) (A)
                 (A) (A) (A) (A) (A) (A) (A) (A) (A) (A) (A) (A)
                 (A) (A) (A) (A) (A) (A) (A) (A) (A) (A) (A) (A)
                 (A) (A) (A) (A) (A) (A) (A) (A) (A) (A) (A) (A)
                 (A) (A) (A) (A) (A) (A) (A) (A) (A) (A) (A) (A)
                 (A) (A) (A) (A) (A) (A) (A) (A) (A) (A) (A) (A)
                 (A) (A) (A) (A) (A) (A) (A) (A) (A) (A) (A) (A)
                 (A) (A) (A) (A) (A) (A) (A) (A) (A) (A) (A) (A)
                 (A) (A) (A) (A) (A) (A) (A) (A) (A) (A) (A) (A)
                 (A) (A) (A) (A) (A) (A) (A) (A) (A) (A) (A) (A)
                 (A) (A) (A) (A) (A) (A) (A) (A) (A) (A) (A) (A)
                 (A) (A) (A) (A) (A) (A) (A) (A) (A) (A) (A) (A)
                 (A) (A) (A) (A) (A) (A) (A) (A) (A) (A) (A) (A)
                 (A) (A) (A) (A) (A) (A) (A) (A) (A) (A) (A) (A)
                 (A) (A) (A) (A) (A) (A) (A) (A) (A) (A) (A) (A)
                 (A) (A) (A) (A) (A) (A) (A) (A) (A) (A) (A) (A)
                 (A) (A) (A) (A) (A) (A) (A) (A) (A) (A) (A) (A)
                 (A) (A) (A) (A) (A) (A) (A) (A) (A) (A) (A) (A)
                 (A) (A) (A) (A) (A) (A) (A) (A) (A) (A) (A) (A)
                 (A) (A) (A) (A) (A) (A) (A) (A) (A) (A) (A) (A)
                 (A) (A) (A)
 The electronic state is 1-A.
 Alpha  occ. eigenvalues --  -25.21033 -25.21005 -25.20732 -19.59276 -19.59076
 Alpha  occ. eigenvalues --  -19.50413 -19.48365 -19.47776 -14.92584 -14.68472
 Alpha  occ. eigenvalues --  -14.66161 -10.72699 -10.57366 -10.52919 -10.52756
 Alpha  occ. eigenvalues --  -10.52532 -10.51348 -10.48972 -10.48091 -10.47531
 Alpha  occ. eigenvalues --  -10.47178 -10.46055 -10.45451 -10.43828 -10.43711
 Alpha  occ. eigenvalues --   -1.37753  -1.28419  -1.28194  -1.27755  -1.09045
 Alpha  occ. eigenvalues --   -1.06639  -1.04424  -0.95640  -0.94673  -0.92142
 Alpha  occ. eigenvalues --   -0.89928  -0.81082  -0.80617  -0.78767  -0.75894
 Alpha  occ. eigenvalues --   -0.72980  -0.70811  -0.67348  -0.64391  -0.62270
 Alpha  occ. eigenvalues --   -0.61822  -0.60097  -0.59791  -0.59194  -0.58194
 Alpha  occ. eigenvalues --   -0.56019  -0.54393  -0.53705  -0.52509  -0.50892
 Alpha  occ. eigenvalues --   -0.49287  -0.48176  -0.47886  -0.47179  -0.46054
 Alpha  occ. eigenvalues --   -0.44651  -0.44090  -0.43982  -0.43928  -0.42448
 Alpha  occ. eigenvalues --   -0.42185  -0.42029  -0.41870  -0.41503  -0.40613
 Alpha  occ. eigenvalues --   -0.39898  -0.38966  -0.38388  -0.37927  -0.37014
 Alpha  occ. eigenvalues --   -0.35786  -0.35099  -0.34598  -0.33646  -0.33293
 Alpha  occ. eigenvalues --   -0.31899  -0.31147  -0.31003  -0.30209  -0.29732
 Alpha  occ. eigenvalues --   -0.29512  -0.28923  -0.28273  -0.24337  -0.23970
 Alpha  occ. eigenvalues --   -0.21330  -0.20780  -0.20619  -0.19985  -0.17326
 Alpha virt. eigenvalues --    0.03755   0.09184   0.09761   0.10261   0.11086
 Alpha virt. eigenvalues --    0.11433   0.12010   0.12339   0.12516   0.12881
 Alpha virt. eigenvalues --    0.12962   0.13582   0.13874   0.14136   0.14415
 Alpha virt. eigenvalues --    0.14645   0.15630   0.15862   0.16599   0.16767
 Alpha virt. eigenvalues --    0.17056   0.17273   0.17621   0.17856   0.18720
 Alpha virt. eigenvalues --    0.19284   0.19353   0.19667   0.19803   0.20719
 Alpha virt. eigenvalues --    0.21084   0.21403   0.21612   0.21671   0.22441
 Alpha virt. eigenvalues --    0.23202   0.23478   0.23623   0.23999   0.24095
 Alpha virt. eigenvalues --    0.25027   0.25578   0.25994   0.26238   0.26401
 Alpha virt. eigenvalues --    0.26662   0.27240   0.28056   0.28333   0.28530
 Alpha virt. eigenvalues --    0.29226   0.29638   0.30099   0.30989   0.31162
 Alpha virt. eigenvalues --    0.31216   0.31517   0.31785   0.32544   0.32991
 Alpha virt. eigenvalues --    0.33121   0.33550   0.33605   0.33864   0.34107
 Alpha virt. eigenvalues --    0.34406   0.34575   0.34698   0.34889   0.35616
 Alpha virt. eigenvalues --    0.35829   0.36422   0.36561   0.36993   0.37504
 Alpha virt. eigenvalues --    0.37693   0.38150   0.38307   0.38613   0.38907
 Alpha virt. eigenvalues --    0.39093   0.39418   0.40102   0.40197   0.40380
 Alpha virt. eigenvalues --    0.40670   0.41276   0.41625   0.42128   0.42398
 Alpha virt. eigenvalues --    0.42566   0.43127   0.43525   0.43781   0.43844
 Alpha virt. eigenvalues --    0.44112   0.44243   0.44760   0.44957   0.45142
 Alpha virt. eigenvalues --    0.45393   0.45909   0.46187   0.46580   0.47109
 Alpha virt. eigenvalues --    0.47392   0.47799   0.48144   0.48431   0.49053
 Alpha virt. eigenvalues --    0.49403   0.49858   0.50079   0.50842   0.51068
 Alpha virt. eigenvalues --    0.51579   0.53032   0.53686   0.54216   0.54977
 Alpha virt. eigenvalues --    0.55133   0.55301   0.55770   0.56310   0.57488
 Alpha virt. eigenvalues --    0.57661   0.58575   0.58844   0.59478   0.60072
 Alpha virt. eigenvalues --    0.60622   0.62546   0.62870   0.63774   0.64195
 Alpha virt. eigenvalues --    0.64471   0.65291   0.66929   0.67189   0.69704
 Alpha virt. eigenvalues --    0.70377   0.72144   0.76451   0.77407   0.78466
 Alpha virt. eigenvalues --    0.79780   0.79833   0.80573   0.81578   0.83727
 Alpha virt. eigenvalues --    0.84277   0.84659   0.85431   0.85849   0.86359
 Alpha virt. eigenvalues --    0.86528   0.87354   0.87724   0.88133   0.88656
 Alpha virt. eigenvalues --    0.90806   0.91609   0.92632   0.93387   0.93852
 Alpha virt. eigenvalues --    0.94334   0.95428   0.95874   0.96443   0.97935
 Alpha virt. eigenvalues --    0.98170   0.98934   1.00238   1.00929   1.01073
 Alpha virt. eigenvalues --    1.03778   1.05517   1.06910   1.08149   1.08386
 Alpha virt. eigenvalues --    1.09235   1.10236   1.10527   1.11664   1.13198
 Alpha virt. eigenvalues --    1.14102   1.15900   1.17311   1.17529   1.17663
 Alpha virt. eigenvalues --    1.17996   1.18477   1.19780   1.20619   1.21890
 Alpha virt. eigenvalues --    1.22602   1.23391   1.24668   1.25415   1.26987
 Alpha virt. eigenvalues --    1.27245   1.27849   1.28517   1.29766   1.30547
 Alpha virt. eigenvalues --    1.31510   1.32312   1.33108   1.34026   1.34394
 Alpha virt. eigenvalues --    1.35847   1.37818   1.38662   1.39938   1.41271
 Alpha virt. eigenvalues --    1.42236   1.42554   1.43796   1.44547   1.44835
 Alpha virt. eigenvalues --    1.46707   1.47264   1.47998   1.48638   1.49670
 Alpha virt. eigenvalues --    1.50640   1.50752   1.50874   1.51259   1.52019
 Alpha virt. eigenvalues --    1.52942   1.54148   1.54668   1.54769   1.55322
 Alpha virt. eigenvalues --    1.56030   1.56746   1.58620   1.59443   1.59755
 Alpha virt. eigenvalues --    1.60958   1.62096   1.62716   1.64023   1.64183
 Alpha virt. eigenvalues --    1.64947   1.67316   1.68069   1.69008   1.70107
 Alpha virt. eigenvalues --    1.71822   1.74250   1.75388   1.75776   1.76260
 Alpha virt. eigenvalues --    1.78445   1.79459   1.79897   1.81929   1.83471
 Alpha virt. eigenvalues --    1.83962   1.84435   1.85164   1.85759   1.86829
 Alpha virt. eigenvalues --    1.87246   1.87761   1.89107   1.90464   1.92072
 Alpha virt. eigenvalues --    1.92620   1.94363   1.94459   1.95315   1.96067
 Alpha virt. eigenvalues --    1.96692   1.97509   1.98188   1.98511   1.99095
 Alpha virt. eigenvalues --    1.99763   2.01121   2.01622   2.02337   2.03200
 Alpha virt. eigenvalues --    2.03912   2.04564   2.05395   2.05518   2.05823
 Alpha virt. eigenvalues --    2.06621   2.07053   2.07510   2.08139   2.08680
 Alpha virt. eigenvalues --    2.10461   2.10925   2.11467   2.12829   2.13414
 Alpha virt. eigenvalues --    2.13895   2.16023   2.16561   2.17566   2.18455
 Alpha virt. eigenvalues --    2.19256   2.20393   2.20752   2.21110   2.21510
 Alpha virt. eigenvalues --    2.21795   2.24240   2.24611   2.25059   2.25399
 Alpha virt. eigenvalues --    2.26476   2.27074   2.27743   2.29467   2.31117
 Alpha virt. eigenvalues --    2.31616   2.32792   2.34181   2.34579   2.36059
 Alpha virt. eigenvalues --    2.37865   2.38397   2.39848   2.41091   2.41950
 Alpha virt. eigenvalues --    2.42864   2.43631   2.46110   2.48685   2.49027
 Alpha virt. eigenvalues --    2.49202   2.50293   2.52452   2.53094   2.54261
 Alpha virt. eigenvalues --    2.56901   2.57664   2.60788   2.63715   2.64667
 Alpha virt. eigenvalues --    2.65317   2.65787   2.67598   2.69186   2.71391
 Alpha virt. eigenvalues --    2.72344   2.74381   2.74891   2.76512   2.77030
 Alpha virt. eigenvalues --    2.82725   2.83587   2.85508   2.86547   2.87609
 Alpha virt. eigenvalues --    2.88369   2.88504   2.91188   2.91870   2.93862
 Alpha virt. eigenvalues --    2.96430   2.99902   3.04467   3.05780   3.06431
 Alpha virt. eigenvalues --    3.11593   3.11834   3.13732   3.17326   3.23026
 Alpha virt. eigenvalues --    3.24138   3.26934   3.28351   3.29757   3.32826
 Alpha virt. eigenvalues --    3.34291   3.40555   3.41739   3.47457   3.50089
 Alpha virt. eigenvalues --    3.55890   4.30016   4.34625   4.36490   4.40581
 Alpha virt. eigenvalues --    4.41376   4.43630   4.51251   4.52531   4.54735
 Alpha virt. eigenvalues --    4.56421   4.58028   4.60138   4.61729   4.63995
 Alpha virt. eigenvalues --    4.69081   4.73097   4.75555   4.81105   4.88160
 Alpha virt. eigenvalues --    4.89463   4.91448   5.00740   5.90143   6.25396
 Alpha virt. eigenvalues --    7.20190
          Condensed to atoms (all electrons):
               1          2          3          4          5          6
     1  C    5.948397  -0.324858   0.071311  -0.034227  -0.078742  -0.001112
     2  C   -0.324858   6.603275  -0.730635  -0.060900   0.323828   0.027513
     3  C    0.071311  -0.730635   7.310272   0.296197  -0.951201  -0.135034
     4  N   -0.034227  -0.060900   0.296197   7.828883   0.475497  -0.184549
     5  C   -0.078742   0.323828  -0.951201   0.475497   6.326394   0.565356
     6  O   -0.001112   0.027513  -0.135034  -0.184549   0.565356   8.346283
     7  N   -0.001956   0.032263  -0.140831  -0.343723   0.204111  -0.064750
     8  C    0.000747   0.001136  -0.054792  -0.022691   0.146338   0.000305
     9  C   -0.007535   0.017910  -0.302819  -0.174053  -0.994849   0.072186
    10  C   -0.004881  -0.001302  -0.069264  -0.010867  -0.111636  -0.008132
    11  C   -0.000695  -0.001845  -0.007286   0.014315   0.101758  -0.012197
    12  C    0.000111  -0.000460   0.010909   0.002833   0.228552  -0.023196
    13  C   -0.000558  -0.001339  -0.027354  -0.010037  -0.573402   0.009334
    14  H    0.464515  -0.140060   0.030418   0.000452  -0.001364   0.000001
    15  H    0.419633  -0.063998  -0.009501   0.000141   0.000666  -0.000016
    16  H    0.420550  -0.064464  -0.009796   0.000176   0.000497  -0.000019
    17  H   -0.035213   0.433730  -0.084731   0.005316   0.000050  -0.000125
    18  H   -0.035748   0.433283  -0.083152   0.005082  -0.000333  -0.000111
    19  H   -0.010082  -0.053299   0.468406  -0.049463  -0.044318  -0.000572
    20  H   -0.013608  -0.051058   0.460591  -0.052933  -0.035003   0.000351
    21  H    0.005507  -0.002115  -0.011007   0.141971  -0.016534   0.002672
    22  H   -0.000085  -0.001715  -0.004977   0.010015  -0.053320   0.003158
    23  H    0.000025  -0.000020   0.004168   0.001551   0.036231  -0.000664
    24  H   -0.000002   0.000030  -0.000568   0.000843  -0.009636   0.000070
    25  C   -0.000298   0.000208  -0.016689  -0.004176  -0.210391   0.006476
    26  F    0.000001  -0.000001   0.000374   0.000026   0.008965  -0.001473
    27  F    0.000000  -0.000001   0.000067   0.000013   0.004551  -0.000046
    28  F    0.000000  -0.000002   0.000075   0.000019   0.005303   0.000087
    29  N    0.000000   0.000002   0.000023  -0.000101  -0.003538   0.000026
    30  O    0.000000  -0.000000   0.000008  -0.000001   0.001368  -0.000004
    31  O    0.000000  -0.000000   0.000011   0.000011   0.000840   0.000017
    32  H    0.000000   0.000000   0.000028   0.000016   0.002803  -0.000000
    33  O    0.009337   0.008231   0.005828  -0.036633  -0.006943  -0.000160
    34  O   -0.001380  -0.005689   0.002141   0.006433  -0.005691   0.000280
    35  C   -0.006586  -0.012066   0.026025   0.001117  -0.003069  -0.000785
    36  C    0.008058  -0.011358   0.061860  -0.033217  -0.042446  -0.001472
    37  C   -0.001114  -0.000513  -0.005816   0.003641   0.001718   0.000073
    38  H    0.000045   0.000073   0.000211  -0.000176  -0.000222  -0.000000
    39  H    0.000050   0.000122   0.000169  -0.000207  -0.000145  -0.000000
    40  H    0.000001   0.000021  -0.000008  -0.000004   0.000058  -0.000000
    41  H    0.000000   0.000005  -0.000009  -0.000006   0.000027   0.000000
    42  H    0.000001   0.000019  -0.000006   0.000000   0.000017  -0.000000
               7          8          9         10         11         12
     1  C   -0.001956   0.000747  -0.007535  -0.004881  -0.000695   0.000111
     2  C    0.032263   0.001136   0.017910  -0.001302  -0.001845  -0.000460
     3  C   -0.140831  -0.054792  -0.302819  -0.069264  -0.007286   0.010909
     4  N   -0.343723  -0.022691  -0.174053  -0.010867   0.014315   0.002833
     5  C    0.204111   0.146338  -0.994849  -0.111636   0.101758   0.228552
     6  O   -0.064750   0.000305   0.072186  -0.008132  -0.012197  -0.023196
     7  N    7.913017   0.292392  -0.037462  -0.175363   0.020661  -0.001783
     8  C    0.292392  15.065161  -1.645949  -0.267308  -1.605394   1.421465
     9  C   -0.037462  -1.645949   8.051070   0.705825  -0.665184  -2.111711
    10  C   -0.175363  -0.267308   0.705825   8.661698  -0.600039  -5.395403
    11  C    0.020661  -1.605394  -0.665184  -0.600039  16.176824   0.211098
    12  C   -0.001783   1.421465  -2.111711  -5.395403   0.211098  27.968553
    13  C   -0.090010  -4.491448   2.040829   2.350323  -8.017036  -9.858862
    14  H    0.000016  -0.000016  -0.000005  -0.000003  -0.000000  -0.000000
    15  H    0.000023   0.000003  -0.000011   0.000001   0.000000   0.000000
    16  H    0.000022   0.000007  -0.000011   0.000002   0.000000   0.000000
    17  H    0.000050  -0.000875  -0.000031   0.000077   0.000003   0.000002
    18  H   -0.000071  -0.000816  -0.000027   0.000057   0.000002   0.000002
    19  H   -0.001321  -0.000995  -0.002376   0.000030   0.000018   0.000015
    20  H   -0.000859  -0.002256  -0.000557   0.000365   0.000033   0.000015
    21  H   -0.000298   0.009425  -0.004005  -0.006978  -0.001896   0.000222
    22  H    0.082148  -0.037317   0.028327   0.014362   0.018861   0.000181
    23  H   -0.018338  -0.024127   0.376290   0.001958  -0.023628  -0.033771
    24  H   -0.010171  -0.024494  -0.005399   0.343250  -0.000142  -0.028427
    25  C    0.001029  -2.310630   0.764025   0.432456   0.001163  -4.674962
    26  F    0.000216   0.062296   0.017019  -0.005164   0.018710   0.060000
    27  F    0.000532   0.035100   0.012495  -0.000258   0.078559   0.109017
    28  F    0.000369   0.025371  -0.022471   0.006290   0.040851   0.019162
    29  N   -0.001911   0.041778  -0.053926   0.019166   0.086961  -0.412841
    30  O   -0.000160   0.043335   0.019051   0.113682  -0.180860  -0.354328
    31  O    0.000285  -0.021748   0.037100   0.011840   0.254672  -0.114086
    32  H    0.000209   0.019009   0.003671  -0.029155   0.221530   0.024017
    33  O    0.009454   0.008121  -0.002536  -0.028978  -0.007912   0.001416
    34  O    0.004618  -0.161670   0.011118   0.146364   0.021410  -0.008628
    35  C   -0.008446   0.097304  -0.021145  -0.072980  -0.044663   0.000552
    36  C   -0.035646   0.010473  -0.020843  -0.000298  -0.028062   0.002961
    37  C    0.003541  -0.032319   0.004895   0.005344   0.024678   0.000571
    38  H    0.000089  -0.000225  -0.000018   0.000149  -0.000150  -0.000004
    39  H    0.000110  -0.000265  -0.000020   0.000100  -0.000159  -0.000001
    40  H   -0.000093   0.000211  -0.000027  -0.000394  -0.000296  -0.000083
    41  H    0.000034   0.000054  -0.000000  -0.000124  -0.000046   0.000006
    42  H   -0.000098   0.000212  -0.000028  -0.000324  -0.000261  -0.000100
              13         14         15         16         17         18
     1  C   -0.000558   0.464515   0.419633   0.420550  -0.035213  -0.035748
     2  C   -0.001339  -0.140060  -0.063998  -0.064464   0.433730   0.433283
     3  C   -0.027354   0.030418  -0.009501  -0.009796  -0.084731  -0.083152
     4  N   -0.010037   0.000452   0.000141   0.000176   0.005316   0.005082
     5  C   -0.573402  -0.001364   0.000666   0.000497   0.000050  -0.000333
     6  O    0.009334   0.000001  -0.000016  -0.000019  -0.000125  -0.000111
     7  N   -0.090010   0.000016   0.000023   0.000022   0.000050  -0.000071
     8  C   -4.491448  -0.000016   0.000003   0.000007  -0.000875  -0.000816
     9  C    2.040829  -0.000005  -0.000011  -0.000011  -0.000031  -0.000027
    10  C    2.350323  -0.000003   0.000001   0.000002   0.000077   0.000057
    11  C   -8.017036  -0.000000   0.000000   0.000000   0.000003   0.000002
    12  C   -9.858862  -0.000000   0.000000   0.000000   0.000002   0.000002
    13  C   24.486437   0.000000   0.000000   0.000000  -0.000004  -0.000003
    14  H    0.000000   0.507366  -0.027432  -0.027436  -0.003000  -0.003006
    15  H    0.000000  -0.027432   0.511487  -0.033395  -0.004485   0.003817
    16  H    0.000000  -0.027436  -0.033395   0.511481   0.003816  -0.004486
    17  H   -0.000004  -0.003000  -0.004485   0.003816   0.480407  -0.031720
    18  H   -0.000003  -0.003006   0.003817  -0.004486  -0.031720   0.480730
    19  H    0.000059  -0.000071  -0.000341   0.002840   0.004182  -0.005418
    20  H    0.000131  -0.000071   0.002852  -0.000348  -0.005421   0.004195
    21  H   -0.001109  -0.000000  -0.000001  -0.000001   0.000926   0.000877
    22  H    0.023378  -0.000000  -0.000000  -0.000000   0.000001   0.000001
    23  H   -0.030337   0.000000   0.000000  -0.000000  -0.000000  -0.000000
    24  H    0.020783   0.000000   0.000000   0.000000  -0.000000  -0.000000
    25  C    0.160116  -0.000000  -0.000000  -0.000000  -0.000001  -0.000001
    26  F   -0.133072  -0.000000  -0.000000   0.000000   0.000000  -0.000000
    27  F   -0.261037   0.000000   0.000000   0.000000  -0.000000   0.000000
    28  F   -0.020255  -0.000000  -0.000000  -0.000000   0.000000  -0.000000
    29  N    0.198114   0.000000   0.000000   0.000000   0.000000  -0.000000
    30  O    0.266589  -0.000000   0.000000  -0.000000  -0.000000   0.000000
    31  O   -0.396608  -0.000000  -0.000000   0.000000   0.000000  -0.000000
    32  H    0.075113  -0.000000   0.000000   0.000000   0.000000   0.000000
    33  O   -0.003240  -0.000038  -0.000014  -0.000016  -0.002627  -0.002510
    34  O    0.012130  -0.000000   0.000000   0.000000  -0.000025  -0.000015
    35  C   -0.011576  -0.000164  -0.000024  -0.000021  -0.000760  -0.000761
    36  C   -0.017504   0.000086  -0.000014  -0.000014   0.000014  -0.000034
    37  C    0.004294  -0.000001   0.000000   0.000000  -0.000033  -0.000035
    38  H   -0.000013  -0.000000  -0.000000   0.000000  -0.000000   0.000000
    39  H   -0.000017  -0.000000   0.000000  -0.000000  -0.000000  -0.000000
    40  H   -0.000015   0.000000  -0.000000  -0.000000   0.000000  -0.000000
    41  H   -0.000001   0.000000  -0.000000  -0.000000  -0.000000  -0.000000
    42  H   -0.000003   0.000000  -0.000000  -0.000000  -0.000000   0.000000
              19         20         21         22         23         24
     1  C   -0.010082  -0.013608   0.005507  -0.000085   0.000025  -0.000002
     2  C   -0.053299  -0.051058  -0.002115  -0.001715  -0.000020   0.000030
     3  C    0.468406   0.460591  -0.011007  -0.004977   0.004168  -0.000568
     4  N   -0.049463  -0.052933   0.141971   0.010015   0.001551   0.000843
     5  C   -0.044318  -0.035003  -0.016534  -0.053320   0.036231  -0.009636
     6  O   -0.000572   0.000351   0.002672   0.003158  -0.000664   0.000070
     7  N   -0.001321  -0.000859  -0.000298   0.082148  -0.018338  -0.010171
     8  C   -0.000995  -0.002256   0.009425  -0.037317  -0.024127  -0.024494
     9  C   -0.002376  -0.000557  -0.004005   0.028327   0.376290  -0.005399
    10  C    0.000030   0.000365  -0.006978   0.014362   0.001958   0.343250
    11  C    0.000018   0.000033  -0.001896   0.018861  -0.023628  -0.000142
    12  C    0.000015   0.000015   0.000222   0.000181  -0.033771  -0.028427
    13  C    0.000059   0.000131  -0.001109   0.023378  -0.030337   0.020783
    14  H   -0.000071  -0.000071  -0.000000  -0.000000   0.000000   0.000000
    15  H   -0.000341   0.002852  -0.000001  -0.000000   0.000000   0.000000
    16  H    0.002840  -0.000348  -0.000001  -0.000000  -0.000000   0.000000
    17  H    0.004182  -0.005421   0.000926   0.000001  -0.000000  -0.000000
    18  H   -0.005418   0.004195   0.000877   0.000001  -0.000000  -0.000000
    19  H    0.523781  -0.047795   0.001545   0.000005  -0.000001   0.000000
    20  H   -0.047795   0.525305   0.001512   0.000008  -0.000001  -0.000000
    21  H    0.001545   0.001512   0.246242   0.009711  -0.000000   0.000004
    22  H    0.000005   0.000008   0.009711   0.272069  -0.000184   0.006566
    23  H   -0.000001  -0.000001  -0.000000  -0.000184   0.395226  -0.000097
    24  H    0.000000  -0.000000   0.000004   0.006566  -0.000097   0.415072
    25  C   -0.000025   0.000030  -0.000155   0.002482  -0.002948   0.004491
    26  F    0.000000  -0.000000   0.000000  -0.000001   0.006496   0.000001
    27  F   -0.000000   0.000000  -0.000000  -0.000000   0.000360  -0.000000
    28  F    0.000000  -0.000000  -0.000000   0.000000  -0.000123   0.000001
    29  N    0.000000  -0.000000   0.000000  -0.000031   0.000240  -0.000370
    30  O   -0.000000   0.000000  -0.000000   0.000002   0.000049  -0.000019
    31  O   -0.000000  -0.000000  -0.000000   0.000000  -0.000135   0.000051
    32  H    0.000000   0.000000   0.000000  -0.000009   0.000011  -0.002843
    33  O   -0.000076  -0.000050   0.085205  -0.002040   0.000002   0.000032
    34  O   -0.000011  -0.000002  -0.001197   0.103143  -0.000004  -0.001147
    35  C    0.000836   0.000583  -0.005588  -0.010472   0.000100   0.001253
    36  C    0.000057  -0.000011   0.021426   0.023896   0.000015   0.001229
    37  C    0.000004   0.000004  -0.003390  -0.002888  -0.000002  -0.000245
    38  H    0.000000  -0.000000  -0.000004  -0.000032   0.000000   0.000000
    39  H   -0.000000   0.000000  -0.000004  -0.000032   0.000000   0.000000
    40  H   -0.000000   0.000000  -0.000000  -0.000016   0.000000   0.000020
    41  H   -0.000000  -0.000000   0.000000  -0.000000  -0.000000  -0.000000
    42  H    0.000000  -0.000000  -0.000000  -0.000016   0.000000   0.000019
              25         26         27         28         29         30
     1  C   -0.000298   0.000001   0.000000   0.000000   0.000000   0.000000
     2  C    0.000208  -0.000001  -0.000001  -0.000002   0.000002  -0.000000
     3  C   -0.016689   0.000374   0.000067   0.000075   0.000023   0.000008
     4  N   -0.004176   0.000026   0.000013   0.000019  -0.000101  -0.000001
     5  C   -0.210391   0.008965   0.004551   0.005303  -0.003538   0.001368
     6  O    0.006476  -0.001473  -0.000046   0.000087   0.000026  -0.000004
     7  N    0.001029   0.000216   0.000532   0.000369  -0.001911  -0.000160
     8  C   -2.310630   0.062296   0.035100   0.025371   0.041778   0.043335
     9  C    0.764025   0.017019   0.012495  -0.022471  -0.053926   0.019051
    10  C    0.432456  -0.005164  -0.000258   0.006290   0.019166   0.113682
    11  C    0.001163   0.018710   0.078559   0.040851   0.086961  -0.180860
    12  C   -4.674962   0.060000   0.109017   0.019162  -0.412841  -0.354328
    13  C    0.160116  -0.133072  -0.261037  -0.020255   0.198114   0.266589
    14  H   -0.000000  -0.000000   0.000000  -0.000000   0.000000  -0.000000
    15  H   -0.000000  -0.000000   0.000000  -0.000000   0.000000   0.000000
    16  H   -0.000000   0.000000   0.000000  -0.000000   0.000000  -0.000000
    17  H   -0.000001   0.000000  -0.000000   0.000000   0.000000  -0.000000
    18  H   -0.000001  -0.000000   0.000000  -0.000000  -0.000000   0.000000
    19  H   -0.000025   0.000000  -0.000000   0.000000   0.000000  -0.000000
    20  H    0.000030  -0.000000   0.000000  -0.000000  -0.000000   0.000000
    21  H   -0.000155   0.000000  -0.000000  -0.000000   0.000000  -0.000000
    22  H    0.002482  -0.000001  -0.000000   0.000000  -0.000031   0.000002
    23  H   -0.002948   0.006496   0.000360  -0.000123   0.000240   0.000049
    24  H    0.004491   0.000001  -0.000000   0.000001  -0.000370  -0.000019
    25  C    9.814495   0.087876   0.138145   0.089893  -0.291446   0.028060
    26  F    0.087876   9.309293  -0.041477  -0.047493   0.000169   0.000023
    27  F    0.138145  -0.041477   9.291635  -0.049568  -0.001892  -0.004299
    28  F    0.089893  -0.047493  -0.049568   9.224426  -0.009045  -0.000896
    29  N   -0.291446   0.000169  -0.001892  -0.009045   7.344830   0.211396
    30  O    0.028060   0.000023  -0.004299  -0.000896   0.211396   7.935454
    31  O    0.200168   0.001266  -0.019155  -0.007304   0.227304  -0.049027
    32  H    0.004456   0.000010   0.000014  -0.000001  -0.027829   0.012629
    33  O   -0.000191  -0.000000  -0.000000  -0.000000   0.000000  -0.000000
    34  O    0.000130   0.000001  -0.000000  -0.000000   0.000074   0.000011
    35  C   -0.003919   0.000009   0.000000   0.000004   0.000098   0.000006
    36  C   -0.001161   0.000000   0.000000   0.000000  -0.000017   0.000000
    37  C    0.000256  -0.000000  -0.000000   0.000000   0.000009  -0.000005
    38  H   -0.000000   0.000000  -0.000000  -0.000000   0.000000  -0.000000
    39  H   -0.000000  -0.000000  -0.000000  -0.000000   0.000000  -0.000000
    40  H   -0.000001  -0.000000   0.000000  -0.000000   0.000000  -0.000000
    41  H   -0.000000  -0.000000  -0.000000  -0.000000  -0.000000   0.000000
    42  H   -0.000000  -0.000000   0.000000  -0.000000   0.000000   0.000000
              31         32         33         34         35         36
     1  C    0.000000   0.000000   0.009337  -0.001380  -0.006586   0.008058
     2  C   -0.000000   0.000000   0.008231  -0.005689  -0.012066  -0.011358
     3  C    0.000011   0.000028   0.005828   0.002141   0.026025   0.061860
     4  N    0.000011   0.000016  -0.036633   0.006433   0.001117  -0.033217
     5  C    0.000840   0.002803  -0.006943  -0.005691  -0.003069  -0.042446
     6  O    0.000017  -0.000000  -0.000160   0.000280  -0.000785  -0.001472
     7  N    0.000285   0.000209   0.009454   0.004618  -0.008446  -0.035646
     8  C   -0.021748   0.019009   0.008121  -0.161670   0.097304   0.010473
     9  C    0.037100   0.003671  -0.002536   0.011118  -0.021145  -0.020843
    10  C    0.011840  -0.029155  -0.028978   0.146364  -0.072980  -0.000298
    11  C    0.254672   0.221530  -0.007912   0.021410  -0.044663  -0.028062
    12  C   -0.114086   0.024017   0.001416  -0.008628   0.000552   0.002961
    13  C   -0.396608   0.075113  -0.003240   0.012130  -0.011576  -0.017504
    14  H   -0.000000  -0.000000  -0.000038  -0.000000  -0.000164   0.000086
    15  H   -0.000000   0.000000  -0.000014   0.000000  -0.000024  -0.000014
    16  H    0.000000   0.000000  -0.000016   0.000000  -0.000021  -0.000014
    17  H    0.000000   0.000000  -0.002627  -0.000025  -0.000760   0.000014
    18  H   -0.000000   0.000000  -0.002510  -0.000015  -0.000761  -0.000034
    19  H   -0.000000   0.000000  -0.000076  -0.000011   0.000836   0.000057
    20  H   -0.000000   0.000000  -0.000050  -0.000002   0.000583  -0.000011
    21  H   -0.000000   0.000000   0.085205  -0.001197  -0.005588   0.021426
    22  H    0.000000  -0.000009  -0.002040   0.103143  -0.010472   0.023896
    23  H   -0.000135   0.000011   0.000002  -0.000004   0.000100   0.000015
    24  H    0.000051  -0.002843   0.000032  -0.001147   0.001253   0.001229
    25  C    0.200168   0.004456  -0.000191   0.000130  -0.003919  -0.001161
    26  F    0.001266   0.000010  -0.000000   0.000001   0.000009   0.000000
    27  F   -0.019155   0.000014  -0.000000  -0.000000   0.000000   0.000000
    28  F   -0.007304  -0.000001  -0.000000  -0.000000   0.000004   0.000000
    29  N    0.227304  -0.027829   0.000000   0.000074   0.000098  -0.000017
    30  O   -0.049027   0.012629  -0.000000   0.000011   0.000006   0.000000
    31  O    7.916610  -0.002001  -0.000000  -0.000002  -0.000003  -0.000003
    32  H   -0.002001   0.451952   0.000000   0.000093   0.000093  -0.000022
    33  O   -0.000000   0.000000   8.506596  -0.181688   0.536273  -0.293485
    34  O   -0.000002   0.000093  -0.181688   8.573193   0.262513  -0.145127
    35  C   -0.000003   0.000093   0.536273   0.262513   5.836411  -1.176551
    36  C   -0.000003  -0.000022  -0.293485  -0.145127  -1.176551   7.905828
    37  C    0.000003  -0.000010   0.032851   0.058727   0.073583  -0.442009
    38  H    0.000000  -0.000000  -0.002670   0.001913  -0.084156   0.453627
    39  H   -0.000000   0.000000  -0.002576   0.001790  -0.085059   0.454069
    40  H   -0.000000  -0.000000   0.000119  -0.004509  -0.005444  -0.058888
    41  H   -0.000000   0.000000  -0.000184   0.001889   0.035370  -0.082227
    42  H    0.000000  -0.000000   0.000123  -0.004479  -0.005945  -0.058166
              37         38         39         40         41         42
     1  C   -0.001114   0.000045   0.000050   0.000001   0.000000   0.000001
     2  C   -0.000513   0.000073   0.000122   0.000021   0.000005   0.000019
     3  C   -0.005816   0.000211   0.000169  -0.000008  -0.000009  -0.000006
     4  N    0.003641  -0.000176  -0.000207  -0.000004  -0.000006   0.000000
     5  C    0.001718  -0.000222  -0.000145   0.000058   0.000027   0.000017
     6  O    0.000073  -0.000000  -0.000000  -0.000000   0.000000  -0.000000
     7  N    0.003541   0.000089   0.000110  -0.000093   0.000034  -0.000098
     8  C   -0.032319  -0.000225  -0.000265   0.000211   0.000054   0.000212
     9  C    0.004895  -0.000018  -0.000020  -0.000027  -0.000000  -0.000028
    10  C    0.005344   0.000149   0.000100  -0.000394  -0.000124  -0.000324
    11  C    0.024678  -0.000150  -0.000159  -0.000296  -0.000046  -0.000261
    12  C    0.000571  -0.000004  -0.000001  -0.000083   0.000006  -0.000100
    13  C    0.004294  -0.000013  -0.000017  -0.000015  -0.000001  -0.000003
    14  H   -0.000001  -0.000000  -0.000000   0.000000   0.000000   0.000000
    15  H    0.000000  -0.000000   0.000000  -0.000000  -0.000000  -0.000000
    16  H    0.000000   0.000000  -0.000000  -0.000000  -0.000000  -0.000000
    17  H   -0.000033  -0.000000  -0.000000   0.000000  -0.000000  -0.000000
    18  H   -0.000035   0.000000  -0.000000  -0.000000  -0.000000   0.000000
    19  H    0.000004   0.000000  -0.000000  -0.000000  -0.000000   0.000000
    20  H    0.000004  -0.000000   0.000000   0.000000  -0.000000  -0.000000
    21  H   -0.003390  -0.000004  -0.000004  -0.000000   0.000000  -0.000000
    22  H   -0.002888  -0.000032  -0.000032  -0.000016  -0.000000  -0.000016
    23  H   -0.000002   0.000000   0.000000   0.000000  -0.000000   0.000000
    24  H   -0.000245   0.000000   0.000000   0.000020  -0.000000   0.000019
    25  C    0.000256  -0.000000  -0.000000  -0.000001  -0.000000  -0.000000
    26  F   -0.000000   0.000000  -0.000000  -0.000000  -0.000000  -0.000000
    27  F   -0.000000  -0.000000  -0.000000   0.000000  -0.000000   0.000000
    28  F    0.000000  -0.000000  -0.000000  -0.000000  -0.000000  -0.000000
    29  N    0.000009   0.000000   0.000000   0.000000  -0.000000   0.000000
    30  O   -0.000005  -0.000000  -0.000000  -0.000000   0.000000   0.000000
    31  O    0.000003   0.000000  -0.000000  -0.000000  -0.000000   0.000000
    32  H   -0.000010  -0.000000   0.000000  -0.000000   0.000000  -0.000000
    33  O    0.032851  -0.002670  -0.002576   0.000119  -0.000184   0.000123
    34  O    0.058727   0.001913   0.001790  -0.004509   0.001889  -0.004479
    35  C    0.073583  -0.084156  -0.085059  -0.005444   0.035370  -0.005945
    36  C   -0.442009   0.453627   0.454069  -0.058888  -0.082227  -0.058166
    37  C    5.858895  -0.049927  -0.049424   0.421323   0.386274   0.420964
    38  H   -0.049927   0.501629  -0.029770  -0.003869  -0.002072   0.003696
    39  H   -0.049424  -0.029770   0.501717   0.003694  -0.002067  -0.003878
    40  H    0.421323  -0.003869   0.003694   0.488368  -0.029663  -0.027289
    41  H    0.386274  -0.002072  -0.002067  -0.029663   0.546620  -0.029690
    42  H    0.420964   0.003696  -0.003878  -0.027289  -0.029690   0.488739
 Mulliken charges:
               1
     1  C   -0.789611
     2  C   -0.353951
     3  C   -0.103614
     4  N   -0.776584
     5  C    0.707856
     6  O   -0.599770
     7  N   -0.631899
     8  C   -0.574907
     9  C   -0.088811
    10  C   -0.024488
    11  C   -0.094358
    12  C   -1.043014
    13  C    0.297212
    14  H    0.199816
    15  H    0.200610
    16  H    0.200614
    17  H    0.240478
    18  H    0.240201
    19  H    0.214386
    20  H    0.213999
    21  H    0.527036
    22  H    0.514818
    23  H    0.311659
    24  H    0.289847
    25  C    1.781039
    26  F   -0.344068
    27  F   -0.292753
    28  F   -0.254692
    29  N   -0.327245
    30  O   -0.042065
    31  O   -0.040107
    32  H    0.246218
    33  O   -0.629021
    34  O   -0.686710
    35  C    0.688053
    36  C   -0.495024
    37  C   -0.713916
    38  H    0.211876
    39  H    0.211803
    40  H    0.216785
    41  H    0.175810
    42  H    0.216493
 Sum of Mulliken charges =  -1.00000
 Mulliken charges with hydrogens summed into heavy atoms:
               1
     1  C   -0.188571
     2  C    0.126727
     3  C    0.324770
     4  N   -0.249548
     5  C    0.707856
     6  O   -0.599770
     7  N   -0.117081
     8  C   -0.574907
     9  C    0.222848
    10  C    0.265359
    11  C    0.151860
    12  C   -1.043014
    13  C    0.297212
    25  C    1.781039
    26  F   -0.344068
    27  F   -0.292753
    28  F   -0.254692
    29  N   -0.327245
    30  O   -0.042065
    31  O   -0.040107
    33  O   -0.629021
    34  O   -0.686710
    35  C    0.688053
    36  C   -0.071345
    37  C   -0.104828
         Mulliken charges condensed to fragments:
      1     -0.196149
      2     -0.803851
 Electronic spatial extent (au):  <R**2>=          12949.9418
 Charge=             -1.0000 electrons
 Dipole moment (field-independent basis, Debye):
    X=              1.5401    Y=             -0.9511    Z=             -0.1059  Tot=              1.8132
 Quadrupole moment (field-independent basis, Debye-Ang):
   XX=           -234.8402   YY=           -176.9182   ZZ=           -150.6832
   XY=             -2.7808   XZ=              1.4400   YZ=              1.1298
 Traceless Quadrupole moment (field-independent basis, Debye-Ang):
   XX=            -47.3596   YY=             10.5623   ZZ=             36.7973
   XY=             -2.7808   XZ=              1.4400   YZ=              1.1298
 Octapole moment (field-independent basis, Debye-Ang**2):
  XXX=             61.0566  YYY=            -34.5835  ZZZ=             -1.5384  XYY=            -23.1546
  XXY=            -88.9835  XXZ=            -10.4895  XZZ=            -21.9073  YZZ=             -9.3346
  YYZ=              3.8747  XYZ=             -3.5635
 Hexadecapole moment (field-independent basis, Debye-Ang**3):
 XXXX=         -14266.8406 YYYY=          -4906.3704 ZZZZ=           -272.5246 XXXY=            311.2004
 XXXZ=             77.0819 YYYX=            126.8992 YYYZ=             14.0546 ZZZX=              3.7722
 ZZZY=              4.4488 XXYY=          -3104.5461 XXZZ=          -2047.2243 YYZZ=           -800.6883
 XXYZ=             16.6157 YYXZ=            -18.8373 ZZXY=             29.7719
 N-N= 2.262245349983D+03 E-N=-7.785994848891D+03  KE= 1.372069854703D+03
 CPIOFr:  IOpCl= 0 IRwI=-1 IRwCP=  731 ICalc= -1 LCPTot=      403115 Len1MO=     1044688 IndFrg=      403115
 CPIOFr:  IOpCl= 0 IRwI=-1 IRwCP=  731 ICalc=  0 LCPTot=      403115 Len1MO=     1044688 IndFrg=     1447803
 Counterpoise: doing DCBS calculation for fragment   1 NewBq=T
 Basis read from rwf:  (6D, 7F)
 There are   509 symmetry adapted cartesian basis functions of A   symmetry.
 There are   509 symmetry adapted basis functions of A   symmetry.
   509 basis functions,   868 primitive gaussians,   509 cartesian basis functions
    75 alpha electrons       75 beta electrons
       nuclear repulsion energy      1585.9595298385 Hartrees.
 NAtoms=   42 NActive=   42 NUniq=   42 SFac= 1.00D+00 NAtFMM=   60 NAOKFM=F Big=F
 Integral buffers will be    131072 words long.
 Raffenetti 2 integral format.
 Two-electron integral symmetry is turned on.
 One-electron integrals computed using PRISM.
 NBasis=   509 RedAO= T EigKep=  1.85D-06  NBF=   509
 NBsUse=   506 1.00D-06 EigRej=  9.94D-07 NBFU=   506
 ExpMin= 4.38D-02 ExpMax= 7.00D+03 ExpMxC= 1.05D+03 IAcc=3 IRadAn=         5 AccDes= 0.00D+00
 Harris functional with IExCor= 1009 and IRadAn=       5 diagonalized for initial guess.
 HarFok:  IExCor= 1009 AccDes= 0.00D+00 IRadAn=         5 IDoV= 1 UseB2=F ITyADJ=14
 ICtDFT=  3500011 ScaDFX=  1.000000  1.000000  1.000000  1.000000
 FoFCou: FMM=F IPFlag=           0 FMFlag=      100000 FMFlg1=           0
         NFxFlg=           0 DoJE=T BraDBF=F KetDBF=T FulRan=T
         wScrn=  0.000000 ICntrl=     500 IOpCl=  0 I1Cent=   200000004 NGrid=           0
         NMat0=    1 NMatS0=      1 NMatT0=    0 NMatD0=    1 NMtDS0=    0 NMtDT0=    0
 Petite list used in FoFCou.
 Requested convergence on RMS density matrix=1.00D-08 within 128 cycles.
 Requested convergence on MAX density matrix=1.00D-06.
 Requested convergence on             energy=1.00D-06.
 No special actions if energy rises.
 SCF Done:  E(RM062X) =  -1115.38803721     A.U. after   17 cycles
            NFock= 17  Conv=0.30D-08     -V/T= 2.0082

 **********************************************************************

            Population analysis using the SCF density.

 **********************************************************************

 Orbital symmetries:
       Occupied  (A) (A) (A) (A) (A) (A) (A) (A) (A) (A) (A) (A)
                 (A) (A) (A) (A) (A) (A) (A) (A) (A) (A) (A) (A)
                 (A) (A) (A) (A) (A) (A) (A) (A) (A) (A) (A) (A)
                 (A) (A) (A) (A) (A) (A) (A) (A) (A) (A) (A) (A)
                 (A) (A) (A) (A) (A) (A) (A) (A) (A) (A) (A) (A)
                 (A) (A) (A) (A) (A) (A) (A) (A) (A) (A) (A) (A)
                 (A) (A) (A)
       Virtual   (A) (A) (A) (A) (A) (A) (A) (A) (A) (A) (A) (A)
                 (A) (A) (A) (A) (A) (A) (A) (A) (A) (A) (A) (A)
                 (A) (A) (A) (A) (A) (A) (A) (A) (A) (A) (A) (A)
                 (A) (A) (A) (A) (A) (A) (A) (A) (A) (A) (A) (A)
                 (A) (A) (A) (A) (A) (A) (A) (A) (A) (A) (A) (A)
                 (A) (A) (A) (A) (A) (A) (A) (A) (A) (A) (A) (A)
                 (A) (A) (A) (A) (A) (A) (A) (A) (A) (A) (A) (A)
                 (A) (A) (A) (A) (A) (A) (A) (A) (A) (A) (A) (A)
                 (A) (A) (A) (A) (A) (A) (A) (A) (A) (A) (A) (A)
                 (A) (A) (A) (A) (A) (A) (A) (A) (A) (A) (A) (A)
                 (A) (A) (A) (A) (A) (A) (A) (A) (A) (A) (A) (A)
                 (A) (A) (A) (A) (A) (A) (A) (A) (A) (A) (A) (A)
                 (A) (A) (A) (A) (A) (A) (A) (A) (A) (A) (A) (A)
                 (A) (A) (A) (A) (A) (A) (A) (A) (A) (A) (A) (A)
                 (A) (A) (A) (A) (A) (A) (A) (A) (A) (A) (A) (A)
                 (A) (A) (A) (A) (A) (A) (A) (A) (A) (A) (A) (A)
                 (A) (A) (A) (A) (A) (A) (A) (A) (A) (A) (A) (A)
                 (A) (A) (A) (A) (A) (A) (A) (A) (A) (A) (A) (A)
                 (A) (A) (A) (A) (A) (A) (A) (A) (A) (A) (A) (A)
                 (A) (A) (A) (A) (A) (A) (A) (A) (A) (A) (A) (A)
                 (A) (A) (A) (A) (A) (A) (A) (A) (A) (A) (A) (A)
                 (A) (A) (A) (A) (A) (A) (A) (A) (A) (A) (A) (A)
                 (A) (A) (A) (A) (A) (A) (A) (A) (A) (A) (A) (A)
                 (A) (A) (A) (A) (A) (A) (A) (A) (A) (A) (A) (A)
                 (A) (A) (A) (A) (A) (A) (A) (A) (A) (A) (A) (A)
                 (A) (A) (A) (A) (A) (A) (A) (A) (A) (A) (A) (A)
                 (A) (A) (A) (A) (A) (A) (A) (A) (A) (A) (A) (A)
                 (A) (A) (A) (A) (A) (A) (A) (A) (A) (A) (A) (A)
                 (A) (A) (A) (A) (A) (A) (A) (A) (A) (A) (A) (A)
                 (A) (A) (A) (A) (A) (A) (A) (A) (A) (A) (A) (A)
                 (A) (A) (A) (A) (A) (A) (A) (A) (A) (A) (A) (A)
                 (A) (A) (A) (A) (A) (A) (A) (A) (A) (A) (A) (A)
                 (A) (A) (A) (A) (A) (A) (A) (A) (A) (A) (A) (A)
                 (A) (A) (A) (A) (A) (A) (A) (A) (A) (A) (A) (A)
                 (A) (A) (A) (A) (A) (A) (A) (A) (A) (A) (A) (A)
                 (A) (A) (A) (A) (A) (A) (A) (A) (A) (A) (A)
 The electronic state is 1-A.
 Alpha  occ. eigenvalues --  -25.29778 -25.29526 -25.29258 -19.68620 -19.68397
 Alpha  occ. eigenvalues --  -19.63967 -15.02017 -14.84389 -14.82205 -10.81784
 Alpha  occ. eigenvalues --  -10.71668 -10.65010 -10.63520 -10.62062 -10.60583
 Alpha  occ. eigenvalues --  -10.60191 -10.59814 -10.58953 -10.57701 -10.56087
 Alpha  occ. eigenvalues --   -1.46367  -1.37252  -1.36833  -1.36728  -1.20464
 Alpha  occ. eigenvalues --   -1.18303  -1.09824  -1.06602  -1.01362  -0.92741
 Alpha  occ. eigenvalues --   -0.91423  -0.90480  -0.83734  -0.82005  -0.78684
 Alpha  occ. eigenvalues --   -0.75368  -0.72430  -0.71861  -0.70742  -0.69171
 Alpha  occ. eigenvalues --   -0.68631  -0.67377  -0.66307  -0.64818  -0.62839
 Alpha  occ. eigenvalues --   -0.61690  -0.60163  -0.58692  -0.57005  -0.56749
 Alpha  occ. eigenvalues --   -0.56601  -0.55311  -0.55075  -0.54734  -0.52659
 Alpha  occ. eigenvalues --   -0.52387  -0.52046  -0.51258  -0.50369  -0.50038
 Alpha  occ. eigenvalues --   -0.49654  -0.48831  -0.47276  -0.45343  -0.44894
 Alpha  occ. eigenvalues --   -0.43049  -0.42758  -0.41495  -0.39644  -0.38016
 Alpha  occ. eigenvalues --   -0.37859  -0.37111  -0.35478  -0.34961  -0.30390
 Alpha virt. eigenvalues --   -0.06276  -0.03526  -0.02049   0.00219   0.01184
 Alpha virt. eigenvalues --    0.01558   0.01616   0.01918   0.02829   0.03546
 Alpha virt. eigenvalues --    0.03880   0.04342   0.04780   0.05130   0.05281
 Alpha virt. eigenvalues --    0.05943   0.06166   0.06861   0.07202   0.07242
 Alpha virt. eigenvalues --    0.07594   0.07770   0.08534   0.08565   0.08883
 Alpha virt. eigenvalues --    0.09378   0.09687   0.09984   0.10765   0.10970
 Alpha virt. eigenvalues --    0.11357   0.11729   0.12487   0.13046   0.13206
 Alpha virt. eigenvalues --    0.13302   0.13545   0.13575   0.14599   0.14856
 Alpha virt. eigenvalues --    0.15380   0.15868   0.15937   0.16400   0.16846
 Alpha virt. eigenvalues --    0.17153   0.17314   0.17751   0.18064   0.18423
 Alpha virt. eigenvalues --    0.18844   0.19422   0.19597   0.19990   0.20098
 Alpha virt. eigenvalues --    0.20147   0.20311   0.21102   0.21391   0.21714
 Alpha virt. eigenvalues --    0.22020   0.22513   0.22806   0.23188   0.24068
 Alpha virt. eigenvalues --    0.24147   0.24464   0.24739   0.25103   0.25355
 Alpha virt. eigenvalues --    0.25638   0.25815   0.26100   0.26492   0.26889
 Alpha virt. eigenvalues --    0.27367   0.27731   0.28082   0.28460   0.28603
 Alpha virt. eigenvalues --    0.28763   0.28970   0.29663   0.30148   0.30518
 Alpha virt. eigenvalues --    0.30814   0.30984   0.31328   0.32247   0.32317
 Alpha virt. eigenvalues --    0.32766   0.33361   0.33487   0.33909   0.34124
 Alpha virt. eigenvalues --    0.34343   0.35194   0.35665   0.35755   0.36071
 Alpha virt. eigenvalues --    0.36397   0.36699   0.36893   0.37534   0.38038
 Alpha virt. eigenvalues --    0.38726   0.39108   0.39721   0.40019   0.40530
 Alpha virt. eigenvalues --    0.40697   0.41116   0.41940   0.42338   0.42474
 Alpha virt. eigenvalues --    0.42841   0.44000   0.44507   0.44635   0.45966
 Alpha virt. eigenvalues --    0.46410   0.46854   0.47313   0.47965   0.48696
 Alpha virt. eigenvalues --    0.49332   0.49590   0.50303   0.50834   0.51354
 Alpha virt. eigenvalues --    0.52803   0.53624   0.53834   0.54296   0.54561
 Alpha virt. eigenvalues --    0.55736   0.56851   0.57984   0.58589   0.59718
 Alpha virt. eigenvalues --    0.60834   0.63553   0.64351   0.66075   0.66807
 Alpha virt. eigenvalues --    0.67552   0.68306   0.69434   0.69525   0.71622
 Alpha virt. eigenvalues --    0.72571   0.73013   0.73293   0.73963   0.74319
 Alpha virt. eigenvalues --    0.74904   0.75265   0.75792   0.75990   0.76957
 Alpha virt. eigenvalues --    0.77524   0.78103   0.79263   0.80130   0.81638
 Alpha virt. eigenvalues --    0.81861   0.82530   0.82760   0.83812   0.84923
 Alpha virt. eigenvalues --    0.85742   0.87092   0.87288   0.87759   0.88869
 Alpha virt. eigenvalues --    0.89193   0.91023   0.91035   0.91592   0.93062
 Alpha virt. eigenvalues --    0.93762   0.95993   0.96533   0.98879   0.99911
 Alpha virt. eigenvalues --    1.01293   1.01356   1.01865   1.02542   1.03792
 Alpha virt. eigenvalues --    1.04037   1.05815   1.07416   1.08106   1.08222
 Alpha virt. eigenvalues --    1.10627   1.12021   1.13216   1.14645   1.14883
 Alpha virt. eigenvalues --    1.15936   1.17703   1.18087   1.18509   1.19404
 Alpha virt. eigenvalues --    1.20869   1.22319   1.22522   1.23916   1.24827
 Alpha virt. eigenvalues --    1.26010   1.26869   1.28532   1.29506   1.30669
 Alpha virt. eigenvalues --    1.31440   1.32220   1.33834   1.34418   1.35164
 Alpha virt. eigenvalues --    1.37083   1.37602   1.38438   1.38928   1.40782
 Alpha virt. eigenvalues --    1.41699   1.42167   1.42485   1.42799   1.43290
 Alpha virt. eigenvalues --    1.44625   1.46702   1.47529   1.48909   1.49837
 Alpha virt. eigenvalues --    1.50704   1.51323   1.52715   1.54583   1.55207
 Alpha virt. eigenvalues --    1.57191   1.57820   1.63004   1.65288   1.66192
 Alpha virt. eigenvalues --    1.67318   1.69378   1.69566   1.72850   1.73312
 Alpha virt. eigenvalues --    1.75511   1.75579   1.76252   1.76401   1.77938
 Alpha virt. eigenvalues --    1.79038   1.79571   1.80343   1.82998   1.83928
 Alpha virt. eigenvalues --    1.84485   1.85091   1.86249   1.86609   1.86957
 Alpha virt. eigenvalues --    1.88017   1.88976   1.89654   1.90596   1.91377
 Alpha virt. eigenvalues --    1.91658   1.92363   1.93910   1.94311   1.95245
 Alpha virt. eigenvalues --    1.95671   1.96458   1.97141   1.97679   1.99169
 Alpha virt. eigenvalues --    1.99476   2.01217   2.01420   2.01713   2.03246
 Alpha virt. eigenvalues --    2.04031   2.04370   2.05533   2.05925   2.09476
 Alpha virt. eigenvalues --    2.10624   2.11101   2.11500   2.12424   2.12788
 Alpha virt. eigenvalues --    2.13674   2.15040   2.16059   2.16494   2.18123
 Alpha virt. eigenvalues --    2.18268   2.18358   2.18902   2.19711   2.20315
 Alpha virt. eigenvalues --    2.21547   2.22218   2.22904   2.23786   2.26131
 Alpha virt. eigenvalues --    2.26734   2.28256   2.29165   2.30888   2.33305
 Alpha virt. eigenvalues --    2.33866   2.34871   2.36132   2.36956   2.38879
 Alpha virt. eigenvalues --    2.38965   2.39684   2.40156   2.41995   2.44316
 Alpha virt. eigenvalues --    2.47324   2.51474   2.51796   2.52558   2.55130
 Alpha virt. eigenvalues --    2.56704   2.58115   2.59145   2.59255   2.60922
 Alpha virt. eigenvalues --    2.62114   2.63082   2.63927   2.65465   2.66772
 Alpha virt. eigenvalues --    2.67309   2.70528   2.71576   2.72553   2.73759
 Alpha virt. eigenvalues --    2.74498   2.75631   2.77510   2.78064   2.78830
 Alpha virt. eigenvalues --    2.79724   2.80948   2.82059   2.83303   2.84958
 Alpha virt. eigenvalues --    2.85430   2.86063   2.89204   2.93145   2.95708
 Alpha virt. eigenvalues --    2.96304   2.98429   3.01046   3.02199   3.03382
 Alpha virt. eigenvalues --    3.04473   3.04798   3.08151   3.11014   3.13999
 Alpha virt. eigenvalues --    3.15850   3.17206   3.20545   3.21893   3.22683
 Alpha virt. eigenvalues --    3.23864   3.27974   3.31157   3.31939   3.33571
 Alpha virt. eigenvalues --    3.37410   3.39571   3.44030   3.52022   3.54667
 Alpha virt. eigenvalues --    3.62889   3.69476   3.75898   3.76609   3.84673
 Alpha virt. eigenvalues --    3.85944   4.04832   4.15399   4.20585   4.22823
 Alpha virt. eigenvalues --    4.26263   4.28528   4.30345   4.32861   4.40046
 Alpha virt. eigenvalues --    4.40905   4.42915   4.44970   4.46441   4.50710
 Alpha virt. eigenvalues --    4.51594   4.54360   4.55513   4.61950   4.64694
 Alpha virt. eigenvalues --    4.66358   4.72789   4.78682   4.79412   4.81334
 Alpha virt. eigenvalues --    4.86226   5.19428   5.21825   5.25135   5.58475
 Alpha virt. eigenvalues --    5.69244   5.81940   6.16946   6.43710   6.49795
 Alpha virt. eigenvalues --    7.11953  23.86679  24.11721  24.29359  38.23596
 Alpha virt. eigenvalues --   38.80566
          Condensed to atoms (all electrons):
               1          2          3          4          5          6
     1  C    5.657730  -0.024826  -0.041186  -0.012112  -0.015002   0.001679
     2  C   -0.024826   6.193860  -0.504395  -0.079830   0.229214   0.021050
     3  C   -0.041186  -0.504395   7.006663   0.362375  -0.805449  -0.106396
     4  N   -0.012112  -0.079830   0.362375   7.688905   0.349161  -0.157562
     5  C   -0.015002   0.229214  -0.805449   0.349161   6.135351   0.583922
     6  O    0.001679   0.021050  -0.106396  -0.157562   0.583922   8.224933
     7  N    0.001043   0.033666  -0.169091  -0.401075   0.199819  -0.058283
     8  C    0.002687   0.002204  -0.035915  -0.043400   0.044145  -0.018869
     9  C   -0.004600   0.014394  -0.265150  -0.158881  -0.818973   0.061284
    10  C   -0.002211  -0.002617  -0.051097  -0.010712  -0.088718  -0.003935
[...]
     4  N    0.013992  -0.000022   0.000014   0.000019  -0.000142   0.000000
     5  C    0.011744  -0.000618   0.003152   0.007320   0.004813   0.000848
     6  O    0.009305  -0.000661  -0.000028   0.000014   0.000079  -0.000003
     7  N    0.001651  -0.001070   0.000423   0.000428  -0.001416  -0.000169
     8  C   -1.849192   0.147759   0.013648   0.013731   0.031464   0.022609
     9  C   -0.058951   0.099590   0.024088  -0.003978  -0.034324   0.029841
    10  C    0.320809   0.001117   0.006272  -0.031533   0.069815   0.106167
    11  C    0.493777   0.013891   0.082715   0.036726   0.137833  -0.213177
    12  C   -2.320296  -0.088335   0.052097  -0.107359  -0.511206  -0.373586
    13  C   -1.443372  -0.158156  -0.226013   0.168241   0.111201   0.338740
    14  H   -0.000000   0.000000  -0.000000  -0.000000   0.000000  -0.000000
    15  H   -0.000000  -0.000000   0.000000  -0.000000   0.000000   0.000000
    16  H   -0.000000   0.000000   0.000000  -0.000000   0.000000  -0.000000
    17  H   -0.000000  -0.000000   0.000000  -0.000000   0.000000  -0.000000
    18  H   -0.000001  -0.000000  -0.000000   0.000000   0.000000   0.000000
    19  H   -0.000027   0.000000  -0.000000   0.000000   0.000000  -0.000000
    20  H    0.000030   0.000000   0.000000  -0.000000  -0.000000  -0.000000
    21  H   -0.000031   0.000000  -0.000000  -0.000000   0.000000  -0.000000
    22  H    0.002065  -0.000000  -0.000000   0.000000  -0.000007   0.000002
    23  H    0.002692   0.006814   0.000359  -0.000040   0.000240   0.000043
    24  H    0.003550  -0.000001  -0.000000   0.000000  -0.000362   0.000019
    25  C    8.894892   0.100482   0.171071   0.072335  -0.279363   0.033934
    26  F    0.100482   9.299322  -0.042194  -0.047337   0.001571   0.000004
    27  F    0.171071  -0.042194   9.261886  -0.048436   0.007235  -0.004240
    28  F    0.072335  -0.047337  -0.048436   9.194731  -0.002159  -0.000626
    29  N   -0.279363   0.001571   0.007235  -0.002159   7.335331   0.205109
    30  O    0.033934   0.000004  -0.004240  -0.000626   0.205109   7.909495
    31  O    0.188768   0.001177  -0.020659  -0.009421   0.248766  -0.050354
    32  H    0.003930   0.000009   0.000009  -0.000003  -0.027711   0.014301
              31         32
     1  C    0.000000   0.000000
     2  C   -0.000000  -0.000000
     3  C    0.000025   0.000031
     4  N    0.000013   0.000006
     5  C    0.002380   0.003226
     6  O    0.000011   0.000001
     7  N    0.000367   0.000079
     8  C    0.034573   0.024304
     9  C    0.081902   0.004958
    10  C   -0.047999  -0.096242
    11  C    0.287634   0.252511
    12  C   -0.226079   0.026650
    13  C   -0.329265   0.103716
    14  H   -0.000000  -0.000000
    15  H   -0.000000   0.000000
    16  H    0.000000   0.000000
    17  H    0.000000   0.000000
    18  H   -0.000000  -0.000000
    19  H   -0.000000  -0.000000
    20  H    0.000000  -0.000000
    21  H   -0.000000  -0.000000
    22  H   -0.000001  -0.000014
    23  H   -0.000105   0.000010
    24  H    0.000052  -0.003133
    25  C    0.188768   0.003930
    26  F    0.001177   0.000009
    27  F   -0.020659   0.000009
    28  F   -0.009421  -0.000003
    29  N    0.248766  -0.027711
    30  O   -0.050354   0.014301
    31  O    7.854982  -0.001941
    32  H   -0.001941   0.429333
 Mulliken charges:
               1
     1  C   -0.712785
     2  C   -0.378713
     3  C   -0.073868
     4  N   -0.676516
     5  C    0.807565
     6  O   -0.560652
     7  N   -0.608198
     8  C    0.192235
     9  C    0.716927
    10  C   -1.453581
    11  C    0.067675
    12  C   -1.267376
    13  C    0.346500
    14  H    0.217626
    15  H    0.217898
    16  H    0.217912
    17  H    0.219847
    18  H    0.220068
    19  H    0.237002
    20  H    0.236677
    21  H    0.406150
    22  H    0.405433
    23  H    0.317514
    24  H    0.207082
    25  C    1.619862
    26  F   -0.333289
    27  F   -0.281439
    28  F   -0.242764
    29  N   -0.296976
    30  O   -0.018963
    31  O   -0.014825
    32  H    0.265971
    33  O    0.000000
    34  O    0.000000
    35  C    0.000000
    36  C    0.000000
    37  C    0.000000
    38  H    0.000000
    39  H    0.000000
    40  H    0.000000
    41  H    0.000000
    42  H    0.000000
 Sum of Mulliken charges =  -0.00000
 Mulliken charges with hydrogens summed into heavy atoms:
               1
     1  C   -0.059349
     2  C    0.061201
     3  C    0.399811
     4  N   -0.270366
     5  C    0.807565
     6  O   -0.560652
     7  N   -0.202764
     8  C    0.192235
     9  C    1.034441
    10  C   -1.246499
    11  C    0.333646
    12  C   -1.267376
    13  C    0.346500
    25  C    1.619862
    26  F   -0.333289
    27  F   -0.281439
    28  F   -0.242764
    29  N   -0.296976
    30  O   -0.018963
    31  O   -0.014825
    33  O    0.000000
    34  O    0.000000
    35  C    0.000000
    36  C    0.000000
    37  C    0.000000
         Mulliken charges condensed to fragments:
      1     -0.000000
      2      0.000000
 Electronic spatial extent (au):  <R**2>=           9489.4897
 Charge=             -0.0000 electrons
 Dipole moment (field-independent basis, Debye):
    X=             11.5835    Y=              2.2248    Z=             -0.0848  Tot=             11.7955
 Quadrupole moment (field-independent basis, Debye-Ang):
   XX=           -135.5446   YY=           -121.5812   ZZ=           -118.0146
   XY=              0.4901   XZ=              1.1370   YZ=              0.9896
 Traceless Quadrupole moment (field-independent basis, Debye-Ang):
   XX=            -10.4978   YY=              3.4656   ZZ=              7.0322
   XY=              0.4901   XZ=              1.1370   YZ=              0.9896
 Octapole moment (field-independent basis, Debye-Ang**2):
  XXX=            581.8613  YYY=            243.7644  ZZZ=             -2.7867  XYY=            142.4359
  XXY=              6.4584  XXZ=             -9.4765  XZZ=             92.0738  YZZ=             76.1424
  YYZ=              3.4501  XYZ=             -4.1871
 Hexadecapole moment (field-independent basis, Debye-Ang**3):
 XXXX=          -9880.0061 YYYY=          -2619.7070 ZZZZ=           -220.9070 XXXY=           1142.8393
 XXXZ=             61.7603 YYYX=           1070.0487 YYYZ=              7.4112 ZZZX=             -2.1509
 ZZZY=             -0.2308 XXYY=          -2007.9272 XXZZ=          -1557.5544 YYZZ=           -464.7001
 XXYZ=             12.4686 YYXZ=            -18.2446 ZZXY=            345.5311
 N-N= 1.585959529838D+03 E-N=-5.784219129251D+03  KE= 1.106345263373D+03
 CPIOFr:  IOpCl= 0 IRwI=-1 IRwCP=  731 ICalc=  3 LCPTot=      403115 Len1MO=     1044688 IndFrg=     4581867
 Counterpoise: doing MCBS calculation for fragment   2
 Basis read from rwf:  (6D, 7F)
 There are   105 symmetry adapted cartesian basis functions of A   symmetry.
 There are   105 symmetry adapted basis functions of A   symmetry.
   105 basis functions,   180 primitive gaussians,   105 cartesian basis functions
    20 alpha electrons       20 beta electrons
       nuclear repulsion energy       168.5526961659 Hartrees.
 NAtoms=   42 NActive=   10 NUniq=   10 SFac= 1.00D+00 NAtFMM=   60 NAOKFM=F Big=F
 Integral buffers will be    131072 words long.
 Raffenetti 2 integral format.
 Two-electron integral symmetry is turned on.
 One-electron integrals computed using PRISM.
 NBasis=   105 RedAO= T EigKep=  1.22D-04  NBF=   105
 NBsUse=   105 1.00D-06 EigRej= -1.00D+00 NBFU=   105
 ExpMin= 4.38D-02 ExpMax= 5.48D+03 ExpMxC= 8.25D+02 IAcc=3 IRadAn=         5 AccDes= 0.00D+00
 Harris functional with IExCor= 1009 and IRadAn=       5 diagonalized for initial guess.
 HarFok:  IExCor= 1009 AccDes= 0.00D+00 IRadAn=         5 IDoV= 1 UseB2=F ITyADJ=14
 ICtDFT=  3500011 ScaDFX=  1.000000  1.000000  1.000000  1.000000
 FoFCou: FMM=F IPFlag=           0 FMFlag=      100000 FMFlg1=           0
         NFxFlg=           0 DoJE=T BraDBF=F KetDBF=T FulRan=T
         wScrn=  0.000000 ICntrl=     500 IOpCl=  0 I1Cent=   200000004 NGrid=           0
         NMat0=    1 NMatS0=      1 NMatT0=    0 NMatD0=    1 NMtDS0=    0 NMtDT0=    0
 Petite list used in FoFCou.
 Keep R1 ints in memory in canonical form, NReq=16474548.
 Requested convergence on RMS density matrix=1.00D-08 within 128 cycles.
 Requested convergence on MAX density matrix=1.00D-06.
 Requested convergence on             energy=1.00D-06.
 No special actions if energy rises.
 SCF Done:  E(RM062X) =  -267.728385569     A.U. after   14 cycles
            NFock= 14  Conv=0.41D-08     -V/T= 2.0084

 **********************************************************************

            Population analysis using the SCF density.

 **********************************************************************

 Orbital symmetries:
       Occupied  (A) (A) (A) (A) (A) (A) (A) (A) (A) (A) (A) (A)
                 (A) (A) (A) (A) (A) (A) (A) (A)
       Virtual   (A) (A) (A) (A) (A) (A) (A) (A) (A) (A) (A) (A)
                 (A) (A) (A) (A) (A) (A) (A) (A) (A) (A) (A) (A)
                 (A) (A) (A) (A) (A) (A) (A) (A) (A) (A) (A) (A)
                 (A) (A) (A) (A) (A) (A) (A) (A) (A) (A) (A) (A)
                 (A) (A) (A) (A) (A) (A) (A) (A) (A) (A) (A) (A)
                 (A) (A) (A) (A) (A) (A) (A) (A) (A) (A) (A) (A)
                 (A) (A) (A) (A) (A) (A) (A) (A) (A) (A) (A) (A)
                 (A)
 The electronic state is 1-A.
 Alpha  occ. eigenvalues --  -19.38274 -19.37989 -10.43607 -10.38693 -10.37542
 Alpha  occ. eigenvalues --   -0.94208  -0.84478  -0.69937  -0.56049  -0.39497
 Alpha  occ. eigenvalues --   -0.36295  -0.33506  -0.30145  -0.27626  -0.27395
 Alpha  occ. eigenvalues --   -0.25004  -0.22628  -0.10864  -0.10853  -0.10150
 Alpha virt. eigenvalues --    0.14613   0.16479   0.18634   0.19571   0.21555
 Alpha virt. eigenvalues --    0.21834   0.22415   0.22878   0.23467   0.25912
 Alpha virt. eigenvalues --    0.28387   0.29718   0.30030   0.38012   0.38904
 Alpha virt. eigenvalues --    0.42283   0.42503   0.43633   0.45465   0.46256
 Alpha virt. eigenvalues --    0.46739   0.48001   0.49578   0.49796   0.50770
 Alpha virt. eigenvalues --    0.55120   0.56109   0.57233   0.71703   0.75141
 Alpha virt. eigenvalues --    0.84447   0.86636   0.89663   0.92073   0.94812
 Alpha virt. eigenvalues --    0.99456   1.01993   1.08472   1.10010   1.14575
 Alpha virt. eigenvalues --    1.20099   1.21326   1.31074   1.32761   1.33998
 Alpha virt. eigenvalues --    1.34572   1.49211   1.54795   1.57813   1.59211
 Alpha virt. eigenvalues --    1.61028   1.63150   1.63277   1.74405   1.78271
 Alpha virt. eigenvalues --    1.80819   1.86874   2.02706   2.02721   2.08636
 Alpha virt. eigenvalues --    2.10154   2.12120   2.14360   2.16382   2.22712
 Alpha virt. eigenvalues --    2.26464   2.28270   2.29463   2.45068   2.52336
 Alpha virt. eigenvalues --    2.54112   2.54331   2.73606   2.74145   2.78521
 Alpha virt. eigenvalues --    2.97599   3.13192   3.27175   3.32754   3.42392
 Alpha virt. eigenvalues --    4.36340   4.41528   4.58216   4.66857   4.82558
          Condensed to atoms (all electrons):
               1          2          3          4          5          6
     1  O    8.617751  -0.170491   0.530343  -0.393337   0.079239  -0.002795
     2  O   -0.170491   8.598466   0.463177  -0.323764   0.096375   0.001297
     3  C    0.530343   0.463177   4.840837  -0.366278   0.050844  -0.015364
     4  C   -0.393337  -0.323764  -0.366278   7.537316  -0.639199   0.388598
     5  C    0.079239   0.096375   0.050844  -0.639199   6.023086  -0.055847
     6  H   -0.002795   0.001297  -0.015364   0.388598  -0.055847   0.530402
     7  H   -0.002799   0.001311  -0.015338   0.388610  -0.055883  -0.032677
     8  H   -0.000111  -0.006649  -0.002875  -0.047918   0.410945  -0.004329
     9  H   -0.000306   0.002893   0.012570  -0.060769   0.378774  -0.002045
    10  H   -0.000109  -0.006642  -0.002953  -0.047823   0.410905   0.003857
               7          8          9         10
     1  O   -0.002799  -0.000111  -0.000306  -0.000109
     2  O    0.001311  -0.006649   0.002893  -0.006642
     3  C   -0.015338  -0.002875   0.012570  -0.002953
     4  C    0.388610  -0.047918  -0.060769  -0.047823
     5  C   -0.055883   0.410945   0.378774   0.410905
     6  H   -0.032677  -0.004329  -0.002045   0.003857
     7  H    0.530381   0.003857  -0.002041  -0.004331
     8  H    0.003857   0.498694  -0.033980  -0.025468
     9  H   -0.002041  -0.033980   0.589286  -0.033988
    10  H   -0.004331  -0.025468  -0.033988   0.498817
 Mulliken charges:
               1
     1  C    0.000000
     2  C    0.000000
     3  C    0.000000
     4  N    0.000000
     5  C    0.000000
     6  O    0.000000
     7  N    0.000000
     8  C    0.000000
     9  C    0.000000
    10  C    0.000000
    11  C    0.000000
    12  C    0.000000
    13  C    0.000000
    14  H    0.000000
    15  H    0.000000
    16  H    0.000000
    17  H    0.000000
    18  H    0.000000
    19  H    0.000000
    20  H    0.000000
    21  H    0.000000
    22  H    0.000000
    23  H    0.000000
    24  H    0.000000
    25  C    0.000000
    26  F    0.000000
    27  F    0.000000
    28  F    0.000000
    29  N    0.000000
    30  O    0.000000
    31  O    0.000000
    32  H    0.000000
    33  O   -0.657383
    34  O   -0.655971
    35  C    0.505036
    36  C   -0.435435
    37  C   -0.699239
    38  H    0.188903
    39  H    0.188912
    40  H    0.207835
    41  H    0.149607
    42  H    0.207736
 Sum of Mulliken charges =  -1.00000
 Mulliken charges with hydrogens summed into heavy atoms:
               1
     1  C    0.000000
     2  C    0.000000
     3  C    0.000000
     4  N    0.000000
     5  C    0.000000
     6  O    0.000000
     7  N    0.000000
     8  C    0.000000
     9  C    0.000000
    10  C    0.000000
    11  C    0.000000
    12  C    0.000000
    13  C    0.000000
    25  C    0.000000
    26  F    0.000000
    27  F    0.000000
    28  F    0.000000
    29  N    0.000000
    30  O    0.000000
    31  O    0.000000
    33  O   -0.657383
    34  O   -0.655971
    35  C    0.505036
    36  C   -0.057620
    37  C   -0.134061
         Mulliken charges condensed to fragments:
      1      0.000000
      2     -1.000000
 Electronic spatial extent (au):  <R**2>=           3454.1274
 Charge=             -1.0000 electrons
 Dipole moment (field-independent basis, Debye):
    X=            -15.8496    Y=             -7.6991    Z=              0.0591  Tot=             17.6208
 Quadrupole moment (field-independent basis, Debye-Ang):
   XX=            -93.3309   YY=            -53.1094   ZZ=            -32.3541
   XY=            -22.2389   XZ=              0.2309   YZ=              0.0895
 Traceless Quadrupole moment (field-independent basis, Debye-Ang):
   XX=            -33.7328   YY=              6.4888   ZZ=             27.2440
   XY=            -22.2389   XZ=              0.2309   YZ=              0.0895
 Octapole moment (field-independent basis, Debye-Ang**2):
  XXX=           -622.5110  YYY=           -357.9535  ZZZ=              1.5135  XYY=           -182.0708
  XXY=           -170.0914  XXZ=              1.5153  XZZ=           -119.8446  YZZ=            -91.0387
  YYZ=              0.7857  XYZ=              0.3291
 Hexadecapole moment (field-independent basis, Debye-Ang**3):
 XXXX=          -4043.5440 YYYY=          -2354.9695 ZZZZ=            -50.1039 XXXY=          -1352.7780
 XXXZ=             10.6124 YYYX=          -1297.5157 YYYZ=              5.7939 ZZZX=              5.8783
 ZZZY=              4.4591 XXYY=          -1018.2565 XXZZ=           -480.0078 YYZZ=           -332.7003
 XXYZ=              2.9226 YYXZ=              3.0015 ZZXY=           -338.0480
 N-N= 1.685526961659D+02 E-N=-9.724496219771D+02  KE= 2.654894800723D+02
 CPIOFr:  IOpCl= 0 IRwI=-1 IRwCP=  731 ICalc=  4 LCPTot=      403115 Len1MO=     1044688 IndFrg=     5626555
 CPIOFr:  IOpCl= 0 IRwI=-2 IRwCP=  731 ICalc=  0 LCPTot=      403115 Len1MO=     1044688 IndFrg=     1447803
 Counterpoise corrected energy =   -1383.206183541106
                   BSSE energy =       0.001719431616
               sum of monomers =   -1383.115681777283
           complexation energy =     -57.87 kcal/mole (raw)
           complexation energy =     -56.79 kcal/mole (corrected)
 1\1\GINC-R3741\SP\RM062X\Gen\C14H17F3N3O5(1-)\ROOT\21-Feb-2019\0\\# M0
 62X/Gen 6D SCF=Tight INT(grid=ultrafine) Counterpoise=2 maxdisk=671088
 640\\3TMF4Nitro_EtO.M062X_6-31pGd_bsse\\-1,1\C,0,-2.1722391602,2.33648
 54292,0.0288168634\C,0,-0.8072702157,1.6558326114,-0.0380522485\C,0,0.
 3288473265,2.6703114776,0.0241364934\N,0,1.6013033822,1.9862647428,-0.
 0418431479\C,0,2.7508738913,2.6905949403,0.0022655287\O,0,2.7988579333
 ,3.9178098533,0.0974655628\N,0,3.8821447947,1.872672689,-0.0716291428\
 C,0,5.1912545365,2.2612686797,-0.0505714259\C,0,5.628347117,3.60588775
 84,0.0191291486\C,0,6.1642357428,1.239509341,-0.1226466602\C,0,7.50640
 76405,1.5542025436,-0.098785673\C,0,7.9284046706,2.8804285157,0.009577
 2806\C,0,6.9795446292,3.9174455414,0.057203102\H,0,-2.9851196651,1.604
 4966154,-0.0159193457\H,0,-2.3049408311,3.0364722735,-0.8046108831\H,0
 ,-2.2838795461,2.9053335352,0.9594718642\H,0,-0.7153377429,1.069821114
 8,-0.960100357\H,0,-0.6945927909,0.9399238662,0.7846429553\H,0,0.26693
 54063,3.2578300181,0.9513886557\H,0,0.2456411586,3.3888735979,-0.80394
 36705\H,0,1.6061389996,0.9508743887,-0.123368046\H,0,3.7286645924,0.83
 91002873,-0.1433673094\H,0,4.8848776664,4.3897802354,0.0281236317\H,0,
 5.8308519051,0.2069389434,-0.1905046146\C,0,7.3365214364,5.3922129271,
 0.070874928\F,0,6.2659346773,6.1513458064,-0.2345721331\F,0,8.27475150
 4,5.6980526388,-0.8430817347\F,0,7.7626601259,5.8255526885,1.266573998
 3\N,0,9.3618195749,3.1030020141,0.1127336989\O,0,10.1080472359,2.23612
 44652,-0.3279026509\O,0,9.7535587102,4.122340404,0.6579032828\H,0,8.25
 83740229,0.7752440434,-0.1467498728\O,0,1.4918541706,-0.8029655917,-0.
 2573317722\O,0,3.7356564194,-0.8609038907,-0.2595479306\C,0,2.59567443
 83,-1.4019775371,-0.2983899165\C,0,2.5373001381,-2.932958525,-0.405853
 6117\C,0,3.8984417199,-3.6159985994,-0.4514571662\H,0,1.9469536933,-3.
 1686319092,-1.2999091959\H,0,1.9438604769,-3.2910707473,0.4444146069\H
 ,0,4.4805563127,-3.2608513632,-1.3066804669\H,0,3.792807737,-4.7049356
 365,-0.5283289059\H,0,4.4773361651,-3.3844101868,0.4472462808\\Version
 =ES64L-G09RevE.01\State=1-A\HF=-267.7283856\RMSD=4.138e-09\Dipole=-0.7
 121311,0.0014285,-0.0400603\Quadrupole=-23.0707935,-3.853867,26.924660
 5,-19.3131138,-1.6812656,-3.279839\PG=C01 [X(C14H17F3N3O5)]\\@


 READER, WHETHER YOU BE DILETTANTE OR PROFESSOR ... SHOW YOURSELF TO BE
 MORE HUMAN THAN CRITICAL, AND THEN YOUR PLEASURE WILL INCREASE.
                                           -- DOMENICO SCARLATTI (1738)
 Job cpu time:       0 days  2 hours 18 minutes 43.9 seconds.
 File lengths (MBytes):  RWF=    213 Int=      0 D2E=      0 Chk=     58 Scr=      1
 Normal termination of Gaussian 09 at Thu Feb 21 21:03:48 2019.
WARNING: pbs_rusage is deprecated and values produced may not be accurate


=============================================================================
                                     Resource usage:
                                       CPU time:              02:11:58
   JobId:    5976058.r-man2            Elapsed time:          00:34:30
   Project:             q95            Requested time:        48:00:00
   Service Units:      2.30 
                                       Max physical memory:      162MB
                                       Max virtual memory:       452MB
                                       Requested memory:           0MB

                                       Number of cpus:               4

                                       Max jobfs disk use:       0.2GB
                                       Requested jobfs:          5.0GB
=============================================================================

