 Entering Gaussian System, Link 0=/apps/gaussian/g09e01/g09/g09
 AtFile(1): /home/507/hio507/Basis/6-31pGd.gbs
 Initial command:
 /apps/gaussian/g09e01/g09/l1.exe "/jobfs/local/5874938.r-man2/Gau-19968.inp" -scrdir="/jobfs/local/5874938.r-man2/"
 Entering Link 1 = /apps/gaussian/g09e01/g09/l1.exe PID=     19969.
  
 Copyright (c) 1988,1990,1992,1993,1995,1998,2003,2009,2015,
            Gaussian, Inc.  All Rights Reserved.
  
 This is part of the Gaussian(R) 09 program.  It is based on
 the Gaussian(R) 03 system (copyright 2003, Gaussian, Inc.),
 the Gaussian(R) 98 system (copyright 1998, Gaussian, Inc.),
 the Gaussian(R) 94 system (copyright 1995, Gaussian, Inc.),
 the Gaussian 92(TM) system (copyright 1992, Gaussian, Inc.),
 the Gaussian 90(TM) system (copyright 1990, Gaussian, Inc.),
 the Gaussian 88(TM) system (copyright 1988, Gaussian, Inc.),
 the Gaussian 86(TM) system (copyright 1986, Carnegie Mellon
 University), and the Gaussian 82(TM) system (copyright 1983,
 Carnegie Mellon University). Gaussian is a federally registered
 trademark of Gaussian, Inc.
  
 This software contains proprietary and confidential information,
 including trade secrets, belonging to Gaussian, Inc.
  
 This software is provided under written license and may be
 used, copied, transmitted, or stored only in accord with that
 written license.
  
 The following legend is applicable only to US Government
 contracts under FAR:
  
                    RESTRICTED RIGHTS LEGEND
  
 Use, reproduction and disclosure by the US Government is
 subject to restrictions as set forth in subparagraphs (a)
 and (c) of the Commercial Computer Software - Restricted
 Rights clause in FAR 52.227-19.
  
 Gaussian, Inc.
 340 Quinnipiac St., Bldg. 40, Wallingford CT 06492
  
  
 ---------------------------------------------------------------
 Warning -- This program may not be used in any manner that
 competes with the business of Gaussian, Inc. or will provide
 assistance to any competitor of Gaussian, Inc.  The licensee
 of this program is prohibited from giving any competitor of
 Gaussian, Inc. access to this program.  By using this program,
 the user acknowledges that Gaussian, Inc. is engaged in the
 business of creating and licensing software in the field of
 computational chemistry and represents and warrants to the
 licensee that it is not a competitor of Gaussian, Inc. and that
 it will not use this program in any manner prohibited above.
 ---------------------------------------------------------------
  

 Cite this work as:
 Gaussian 09, Revision E.01,
 M. J. Frisch, G. W. Trucks, H. B. Schlegel, G. E. Scuseria, 
 M. A. Robb, J. R. Cheeseman, G. Scalmani, V. Barone, B. Mennucci, 
 G. A. Petersson, H. Nakatsuji, M. Caricato, X. Li, H. P. Hratchian, 
 A. F. Izmaylov, J. Bloino, G. Zheng, J. L. Sonnenberg, M. Hada, 
 M. Ehara, K. Toyota, R. Fukuda, J. Hasegawa, M. Ishida, T. Nakajima, 
 Y. Honda, O. Kitao, H. Nakai, T. Vreven, J. A. Montgomery, Jr., 
 J. E. Peralta, F. Ogliaro, M. Bearpark, J. J. Heyd, E. Brothers, 
 K. N. Kudin, V. N. Staroverov, T. Keith, R. Kobayashi, J. Normand, 
 K. Raghavachari, A. Rendell, J. C. Burant, S. S. Iyengar, J. Tomasi, 
 M. Cossi, N. Rega, J. M. Millam, M. Klene, J. E. Knox, J. B. Cross, 
 V. Bakken, C. Adamo, J. Jaramillo, R. Gomperts, R. E. Stratmann, 
 O. Yazyev, A. J. Austin, R. Cammi, C. Pomelli, J. W. Ochterski, 
 R. L. Martin, K. Morokuma, V. G. Zakrzewski, G. A. Voth, 
 P. Salvador, J. J. Dannenberg, S. Dapprich, A. D. Daniels, 
 O. Farkas, J. B. Foresman, J. V. Ortiz, J. Cioslowski, 
 and D. J. Fox, Gaussian, Inc., Wallingford CT, 2013.
 
 ******************************************
 Gaussian 09:  ES64L-G09RevE.01 30-Nov-2015
                19-Feb-2019 
 ******************************************
 %chk=3TMF4Nitro_EtO.M062X_6-31pGd_opt_water.chk
 %mem=196608000
 %nproc=8
 Will use up to    8 processors via shared memory.
 ----------------------------------------------------------------------
 # M062X/Gen 6D SCF=Tight INT(grid=ultrafine) OPT IOP(2/17=4) SCRF=(SMD
 ,Solvent=h2o) maxdisk=3221225472
 ----------------------------------------------------------------------
 1/14=-1,18=20,19=15,26=4,38=1/1,3;
 2/9=110,12=2,17=4,18=5,40=1/2;
 3/5=7,8=2,11=2,16=1,25=1,30=1,70=32201,71=1,72=1,74=-55,75=-5/1,2,3;
 4//1;
 5/5=2,32=2,38=5,53=1/2;
 6/7=2,8=2,9=2,10=2,28=1/1;
 7//1,2,3,16;
 1/14=-1,18=20,19=15,26=4/3(2);
 2/9=110,17=4/2;
 99//99;
 2/9=110,17=4/2;
 3/5=7,6=1,8=2,11=2,16=1,25=1,30=1,70=32205,71=1,72=1,74=-55,75=-5,82=7/1,2,3;
 4/5=5,16=3,69=1/1;
 5/5=2,32=2,38=5,53=1/2;
 7//1,2,3,16;
 1/14=-1,18=20,19=15,26=4/3(-5);
 2/9=110,17=4/2;
 6/7=2,8=2,9=2,10=2,19=2,28=1/1;
 99/9=1/99;
 --------------------------------------
 3TMF4Nitro_EtO.M062X_6-31pGd_opt_water
 --------------------------------------
 Symbolic Z-matrix:
 Charge = -1 Multiplicity = 1
 C                    -2.21689   2.63869   0.02188 
 C                    -0.91646   1.84085   0.02624 
 C                     0.30367   2.76794   0.02121 
 N                     1.54148   2.00543   0.02195 
 C                     2.75912   2.62152   0.02409 
 O                     2.80221   3.84077   0.03107 
 N                     3.90588   1.86604   0.0236 
 C                     5.27406   2.3339    0.03548 
 C                     5.65976   3.69417   0.0094 
 C                     6.2936    1.37511   0.07636 
 C                     7.63467   1.73964   0.09295 
 C                     8.03784   3.08848   0.06869 
 C                     7.0184    4.09476   0.02492 
 H                    -3.08098   1.94139   0.0273 
 H                    -2.27726   3.27282  -0.88824 
 H                    -2.27615   3.28593   0.92276 
 H                    -0.89206   1.18954  -0.87445 
 H                    -0.8903    1.19943   0.93408 
 H                     0.2721    3.41592   0.92491 
 H                     0.27082   3.4101   -0.88661 
 H                     1.48586   0.8667    0.02284 
 H                     3.75831   0.72803   0.01613 
 H                     4.92518   4.46944  -0.02553 
 H                     6.06064   0.31989   0.09884 
 C                     7.33079   5.58695  -0.00596 
 F                     6.18875   6.36927  -0.0474 
 F                     8.07469   5.88838  -1.13282 
 F                     8.03085   5.9445    1.1325 
 N                     9.45043   3.37409   0.08925 
 O                     10.24144   2.47955   0.12647 
 O                     9.86356   4.49188   0.07106 
 H                     8.3684    0.94414   0.12618 
 O                     1.42702  -1.18983  -0.22298 
 O                     3.64969  -1.33133  -0.24484 
 C                     2.56799  -1.90212  -0.31839 
 C                     2.48206  -3.39186  -0.51712 
 C                     3.84954  -4.06636  -0.61897 
 H                     1.91467  -3.5925   -1.45094 
 H                     1.92627  -3.83301   0.33768 
 H                     4.41631  -3.65984  -1.48379 
 H                     3.71426  -5.15876  -0.76572 
 H                     4.43184  -3.90231   0.31274 
 
 Add virtual bond connecting atoms O33        and H21        Dist= 3.92D+00.
 Add virtual bond connecting atoms O34        and H22        Dist= 3.93D+00.

 GradGradGradGradGradGradGradGradGradGradGradGradGradGradGradGradGradGrad
 Berny optimization.
 Initialization pass.
                           ----------------------------
                           !    Initial Parameters    !
                           ! (Angstroms and Degrees)  !
 --------------------------                            --------------------------
 ! Name  Definition              Value          Derivative Info.                !
 --------------------------------------------------------------------------------
 ! R1    R(1,2)                  1.5257         estimate D2E/DX2                !
 ! R2    R(1,14)                 1.1104         estimate D2E/DX2                !
 ! R3    R(1,15)                 1.1109         estimate D2E/DX2                !
 ! R4    R(1,16)                 1.1109         estimate D2E/DX2                !
 ! R5    R(2,3)                  1.5324         estimate D2E/DX2                !
 ! R6    R(2,17)                 1.1118         estimate D2E/DX2                !
 ! R7    R(2,18)                 1.1119         estimate D2E/DX2                !
 ! R8    R(3,4)                  1.4538         estimate D2E/DX2                !
 ! R9    R(3,19)                 1.1125         estimate D2E/DX2                !
 ! R10   R(3,20)                 1.1125         estimate D2E/DX2                !
 ! R11   R(4,5)                  1.3646         estimate D2E/DX2                !
 ! R12   R(4,21)                 1.1401         estimate D2E/DX2                !
 ! R13   R(5,6)                  1.22           estimate D2E/DX2                !
 ! R14   R(5,7)                  1.3732         estimate D2E/DX2                !
 ! R15   R(7,8)                  1.446          estimate D2E/DX2                !
 ! R16   R(7,22)                 1.1476         estimate D2E/DX2                !
 ! R17   R(8,9)                  1.4141         estimate D2E/DX2                !
 ! R18   R(8,10)                 1.4001         estimate D2E/DX2                !
 ! R19   R(9,13)                 1.4166         estimate D2E/DX2                !
 ! R20   R(9,23)                 1.0686         estimate D2E/DX2                !
 ! R21   R(10,11)                1.3898         estimate D2E/DX2                !
 ! R22   R(10,24)                1.0809         estimate D2E/DX2                !
 ! R23   R(11,12)                1.408          estimate D2E/DX2                !
 ! R24   R(11,32)                1.0827         estimate D2E/DX2                !
 ! R25   R(12,13)                1.4331         estimate D2E/DX2                !
 ! R26   R(12,29)                1.4413         estimate D2E/DX2                !
 ! R27   R(13,25)                1.5249         estimate D2E/DX2                !
 ! R28   R(21,33)                2.072          estimate D2E/DX2                !
 ! R29   R(22,34)                2.0787         estimate D2E/DX2                !
 ! R30   R(25,26)                1.3849         estimate D2E/DX2                !
 ! R31   R(25,27)                1.3835         estimate D2E/DX2                !
 ! R32   R(25,28)                1.3835         estimate D2E/DX2                !
 ! R33   R(29,30)                1.1947         estimate D2E/DX2                !
 ! R34   R(29,31)                1.1918         estimate D2E/DX2                !
 ! R35   R(33,35)                1.3484         estimate D2E/DX2                !
 ! R36   R(34,35)                1.2253         estimate D2E/DX2                !
 ! R37   R(35,36)                1.5054         estimate D2E/DX2                !
 ! R38   R(36,37)                1.5282         estimate D2E/DX2                !
 ! R39   R(36,38)                1.1109         estimate D2E/DX2                !
 ! R40   R(36,39)                1.1109         estimate D2E/DX2                !
 ! R41   R(37,40)                1.111          estimate D2E/DX2                !
 ! R42   R(37,41)                1.1105         estimate D2E/DX2                !
 ! R43   R(37,42)                1.1109         estimate D2E/DX2                !
 ! A1    A(2,1,14)             109.5662         estimate D2E/DX2                !
 ! A2    A(2,1,15)             110.3145         estimate D2E/DX2                !
 ! A3    A(2,1,16)             110.3554         estimate D2E/DX2                !
 ! A4    A(14,1,15)            108.6741         estimate D2E/DX2                !
 ! A5    A(14,1,16)            108.6886         estimate D2E/DX2                !
 ! A6    A(15,1,16)            109.2029         estimate D2E/DX2                !
 ! A7    A(1,2,3)              111.2406         estimate D2E/DX2                !
 ! A8    A(1,2,17)             108.8291         estimate D2E/DX2                !
 ! A9    A(1,2,18)             108.9087         estimate D2E/DX2                !
 ! A10   A(3,2,17)             109.5293         estimate D2E/DX2                !
 ! A11   A(3,2,18)             109.4482         estimate D2E/DX2                !
 ! A12   A(17,2,18)            108.8445         estimate D2E/DX2                !
 ! A13   A(2,3,4)              111.1374         estimate D2E/DX2                !
 ! A14   A(2,3,19)             109.0949         estimate D2E/DX2                !
 ! A15   A(2,3,20)             109.1713         estimate D2E/DX2                !
 ! A16   A(4,3,19)             109.2233         estimate D2E/DX2                !
 ! A17   A(4,3,20)             109.1663         estimate D2E/DX2                !
 ! A18   A(19,3,20)            109.0167         estimate D2E/DX2                !
 ! A19   A(3,4,5)              121.5282         estimate D2E/DX2                !
 ! A20   A(3,4,21)             118.8374         estimate D2E/DX2                !
 ! A21   A(5,4,21)             119.6343         estimate D2E/DX2                !
 ! A22   A(4,5,6)              118.8622         estimate D2E/DX2                !
 ! A23   A(4,5,7)              119.7852         estimate D2E/DX2                !
 ! A24   A(6,5,7)              121.3522         estimate D2E/DX2                !
 ! A25   A(5,7,8)              127.7431         estimate D2E/DX2                !
 ! A26   A(5,7,22)             115.9877         estimate D2E/DX2                !
 ! A27   A(8,7,22)             116.2689         estimate D2E/DX2                !
 ! A28   A(7,8,9)              124.6904         estimate D2E/DX2                !
 ! A29   A(7,8,10)             117.8819         estimate D2E/DX2                !
 ! A30   A(9,8,10)             117.4277         estimate D2E/DX2                !
 ! A31   A(8,9,13)             122.2365         estimate D2E/DX2                !
 ! A32   A(8,9,23)             120.7294         estimate D2E/DX2                !
 ! A33   A(13,9,23)            117.034          estimate D2E/DX2                !
 ! A34   A(8,10,11)            121.5581         estimate D2E/DX2                !
 ! A35   A(8,10,24)            120.8102         estimate D2E/DX2                !
 ! A36   A(11,10,24)           117.6315         estimate D2E/DX2                !
 ! A37   A(10,11,12)           121.8265         estimate D2E/DX2                !
 ! A38   A(10,11,32)           117.4877         estimate D2E/DX2                !
 ! A39   A(12,11,32)           120.6858         estimate D2E/DX2                !
 ! A40   A(11,12,13)           118.0017         estimate D2E/DX2                !
 ! A41   A(11,12,29)           118.0483         estimate D2E/DX2                !
 ! A42   A(13,12,29)           123.9499         estimate D2E/DX2                !
 ! A43   A(9,13,12)            118.9495         estimate D2E/DX2                !
 ! A44   A(9,13,25)            118.2295         estimate D2E/DX2                !
 ! A45   A(12,13,25)           122.821          estimate D2E/DX2                !
 ! A46   A(13,25,26)           112.6099         estimate D2E/DX2                !
 ! A47   A(13,25,27)           109.8683         estimate D2E/DX2                !
 ! A48   A(13,25,28)           109.8712         estimate D2E/DX2                !
 ! A49   A(26,25,27)           107.2146         estimate D2E/DX2                !
 ! A50   A(26,25,28)           107.2118         estimate D2E/DX2                !
 ! A51   A(27,25,28)           109.9903         estimate D2E/DX2                !
 ! A52   A(12,29,30)           120.0647         estimate D2E/DX2                !
 ! A53   A(12,29,31)           121.6922         estimate D2E/DX2                !
 ! A54   A(30,29,31)           118.2431         estimate D2E/DX2                !
 ! A55   A(21,33,35)           120.5743         estimate D2E/DX2                !
 ! A56   A(22,34,35)           121.0101         estimate D2E/DX2                !
 ! A57   A(33,35,34)           119.7802         estimate D2E/DX2                !
 ! A58   A(33,35,36)           118.9329         estimate D2E/DX2                !
 ! A59   A(34,35,36)           121.2868         estimate D2E/DX2                !
 ! A60   A(35,36,37)           113.2352         estimate D2E/DX2                !
 ! A61   A(35,36,38)           108.5929         estimate D2E/DX2                !
 ! A62   A(35,36,39)           108.6598         estimate D2E/DX2                !
 ! A63   A(37,36,38)           108.7406         estimate D2E/DX2                !
 ! A64   A(37,36,39)           108.8863         estimate D2E/DX2                !
 ! A65   A(38,36,39)           108.6346         estimate D2E/DX2                !
 ! A66   A(36,37,40)           110.2958         estimate D2E/DX2                !
 ! A67   A(36,37,41)           109.5108         estimate D2E/DX2                !
 ! A68   A(36,37,42)           110.3636         estimate D2E/DX2                !
 ! A69   A(40,37,41)           108.6154         estimate D2E/DX2                !
 ! A70   A(40,37,42)           109.3546         estimate D2E/DX2                !
 ! A71   A(41,37,42)           108.6605         estimate D2E/DX2                !
 ! A72   L(4,21,33,2,-1)       181.0164         estimate D2E/DX2                !
 ! A73   L(7,22,34,1,-1)       184.257          estimate D2E/DX2                !
 ! A74   L(4,21,33,2,-2)       172.6876         estimate D2E/DX2                !
 ! A75   L(7,22,34,1,-2)       172.929          estimate D2E/DX2                !
 ! D1    D(14,1,2,3)          -179.9104         estimate D2E/DX2                !
 ! D2    D(14,1,2,17)           59.3276         estimate D2E/DX2                !
 ! D3    D(14,1,2,18)          -59.197          estimate D2E/DX2                !
 ! D4    D(15,1,2,3)            60.4911         estimate D2E/DX2                !
 ! D5    D(15,1,2,17)          -60.2709         estimate D2E/DX2                !
 ! D6    D(15,1,2,18)         -178.7956         estimate D2E/DX2                !
 ! D7    D(16,1,2,3)           -60.2686         estimate D2E/DX2                !
 ! D8    D(16,1,2,17)          178.9694         estimate D2E/DX2                !
 ! D9    D(16,1,2,18)           60.4448         estimate D2E/DX2                !
 ! D10   D(1,2,3,4)           -179.8552         estimate D2E/DX2                !
 ! D11   D(1,2,3,19)            59.6542         estimate D2E/DX2                !
 ! D12   D(1,2,3,20)           -59.3858         estimate D2E/DX2                !
 ! D13   D(17,2,3,4)           -59.5058         estimate D2E/DX2                !
 ! D14   D(17,2,3,19)         -179.9963         estimate D2E/DX2                !
 ! D15   D(17,2,3,20)           60.9637         estimate D2E/DX2                !
 ! D16   D(18,2,3,4)            59.7493         estimate D2E/DX2                !
 ! D17   D(18,2,3,19)          -60.7413         estimate D2E/DX2                !
 ! D18   D(18,2,3,20)         -179.7813         estimate D2E/DX2                !
 ! D19   D(2,3,4,5)           -179.6996         estimate D2E/DX2                !
 ! D20   D(2,3,4,21)             0.1779         estimate D2E/DX2                !
 ! D21   D(19,3,4,5)           -59.2849         estimate D2E/DX2                !
 ! D22   D(19,3,4,21)          120.5926         estimate D2E/DX2                !
 ! D23   D(20,3,4,5)            59.8281         estimate D2E/DX2                !
 ! D24   D(20,3,4,21)         -120.2945         estimate D2E/DX2                !
 ! D25   D(3,4,5,6)              0.3039         estimate D2E/DX2                !
 ! D26   D(3,4,5,7)           -179.9459         estimate D2E/DX2                !
 ! D27   D(21,4,5,6)          -179.5727         estimate D2E/DX2                !
 ! D28   D(21,4,5,7)             0.1776         estimate D2E/DX2                !
 ! D29   D(3,4,33,35)          175.3282         estimate D2E/DX2                !
 ! D30   D(5,4,33,35)            0.1556         estimate D2E/DX2                !
 ! D31   D(4,5,7,8)           -179.5041         estimate D2E/DX2                !
 ! D32   D(4,5,7,22)             0.2897         estimate D2E/DX2                !
 ! D33   D(6,5,7,8)              0.2397         estimate D2E/DX2                !
 ! D34   D(6,5,7,22)          -179.9664         estimate D2E/DX2                !
 ! D35   D(5,7,8,9)             -2.0015         estimate D2E/DX2                !
 ! D36   D(5,7,8,10)           177.9659         estimate D2E/DX2                !
 ! D37   D(22,7,8,9)           178.2052         estimate D2E/DX2                !
 ! D38   D(22,7,8,10)           -1.8274         estimate D2E/DX2                !
 ! D39   D(5,7,34,35)           -1.5673         estimate D2E/DX2                !
 ! D40   D(8,7,34,35)         -177.4041         estimate D2E/DX2                !
 ! D41   D(7,8,9,13)           179.8954         estimate D2E/DX2                !
 ! D42   D(7,8,9,23)            -0.2469         estimate D2E/DX2                !
 ! D43   D(10,8,9,13)           -0.0722         estimate D2E/DX2                !
 ! D44   D(10,8,9,23)          179.7856         estimate D2E/DX2                !
 ! D45   D(7,8,10,11)         -179.8723         estimate D2E/DX2                !
 ! D46   D(7,8,10,24)           -0.0373         estimate D2E/DX2                !
 ! D47   D(9,8,10,11)            0.0975         estimate D2E/DX2                !
 ! D48   D(9,8,10,24)          179.9325         estimate D2E/DX2                !
 ! D49   D(8,9,13,12)           -0.0075         estimate D2E/DX2                !
 ! D50   D(8,9,13,25)          179.9911         estimate D2E/DX2                !
 ! D51   D(23,9,13,12)        -179.8702         estimate D2E/DX2                !
 ! D52   D(23,9,13,25)           0.1284         estimate D2E/DX2                !
 ! D53   D(8,10,11,12)          -0.0433         estimate D2E/DX2                !
 ! D54   D(8,10,11,32)         179.9167         estimate D2E/DX2                !
 ! D55   D(24,10,11,12)       -179.8832         estimate D2E/DX2                !
 ! D56   D(24,10,11,32)          0.0767         estimate D2E/DX2                !
 ! D57   D(10,11,12,13)         -0.0394         estimate D2E/DX2                !
 ! D58   D(10,11,12,29)        179.9656         estimate D2E/DX2                !
 ! D59   D(32,11,12,13)       -179.9981         estimate D2E/DX2                !
 ! D60   D(32,11,12,29)          0.0069         estimate D2E/DX2                !
 ! D61   D(11,12,13,9)           0.0631         estimate D2E/DX2                !
 ! D62   D(11,12,13,25)       -179.9355         estimate D2E/DX2                !
 ! D63   D(29,12,13,9)        -179.9422         estimate D2E/DX2                !
 ! D64   D(29,12,13,25)          0.0592         estimate D2E/DX2                !
 ! D65   D(11,12,29,30)         -0.0354         estimate D2E/DX2                !
 ! D66   D(11,12,29,31)       -179.9783         estimate D2E/DX2                !
 ! D67   D(13,12,29,30)        179.9699         estimate D2E/DX2                !
 ! D68   D(13,12,29,31)          0.027          estimate D2E/DX2                !
 ! D69   D(9,13,25,26)          -0.0385         estimate D2E/DX2                !
 ! D70   D(9,13,25,27)        -119.4697         estimate D2E/DX2                !
 ! D71   D(9,13,25,28)         119.3911         estimate D2E/DX2                !
 ! D72   D(12,13,25,26)        179.96           estimate D2E/DX2                !
 ! D73   D(12,13,25,27)         60.5288         estimate D2E/DX2                !
 ! D74   D(12,13,25,28)        -60.6103         estimate D2E/DX2                !
 ! D75   D(21,33,35,34)          0.7887         estimate D2E/DX2                !
 ! D76   D(21,33,35,36)       -179.0914         estimate D2E/DX2                !
 ! D77   D(22,34,35,33)         -0.3162         estimate D2E/DX2                !
 ! D78   D(22,34,35,36)        179.561          estimate D2E/DX2                !
 ! D79   D(33,35,36,37)        179.5387         estimate D2E/DX2                !
 ! D80   D(33,35,36,38)         58.6533         estimate D2E/DX2                !
 ! D81   D(33,35,36,39)        -59.3442         estimate D2E/DX2                !
 ! D82   D(34,35,36,37)         -0.3395         estimate D2E/DX2                !
 ! D83   D(34,35,36,38)       -121.2249         estimate D2E/DX2                !
 ! D84   D(34,35,36,39)        120.7776         estimate D2E/DX2                !
 ! D85   D(35,36,37,40)        -60.4313         estimate D2E/DX2                !
 ! D86   D(35,36,37,41)       -179.9113         estimate D2E/DX2                !
 ! D87   D(35,36,37,42)         60.5112         estimate D2E/DX2                !
 ! D88   D(38,36,37,40)         60.3705         estimate D2E/DX2                !
 ! D89   D(38,36,37,41)        -59.1095         estimate D2E/DX2                !
 ! D90   D(38,36,37,42)       -178.687          estimate D2E/DX2                !
 ! D91   D(39,36,37,40)        178.5795         estimate D2E/DX2                !
 ! D92   D(39,36,37,41)         59.0994         estimate D2E/DX2                !
 ! D93   D(39,36,37,42)        -60.4781         estimate D2E/DX2                !
 --------------------------------------------------------------------------------
 Trust Radius=3.00D-01 FncErr=1.00D-07 GrdErr=1.00D-06
 Number of steps in this run=    221 maximum allowed number of steps=    252.
 GradGradGradGradGradGradGradGradGradGradGradGradGradGradGradGradGradGrad

                          Input orientation:                          
 ---------------------------------------------------------------------
 Center     Atomic      Atomic             Coordinates (Angstroms)
 Number     Number       Type             X           Y           Z
 ---------------------------------------------------------------------
      1          6           0       -2.216890    2.638690    0.021880
      2          6           0       -0.916460    1.840850    0.026240
      3          6           0        0.303670    2.767940    0.021210
      4          7           0        1.541480    2.005430    0.021950
      5          6           0        2.759120    2.621520    0.024090
      6          8           0        2.802210    3.840770    0.031070
      7          7           0        3.905880    1.866040    0.023600
      8          6           0        5.274060    2.333900    0.035480
      9          6           0        5.659760    3.694170    0.009400
     10          6           0        6.293600    1.375110    0.076360
     11          6           0        7.634670    1.739640    0.092950
     12          6           0        8.037840    3.088480    0.068690
     13          6           0        7.018400    4.094760    0.024920
     14          1           0       -3.080980    1.941390    0.027300
     15          1           0       -2.277260    3.272820   -0.888240
     16          1           0       -2.276150    3.285930    0.922760
     17          1           0       -0.892060    1.189540   -0.874450
     18          1           0       -0.890300    1.199430    0.934080
     19          1           0        0.272100    3.415920    0.924910
     20          1           0        0.270820    3.410100   -0.886610
     21          1           0        1.485860    0.866700    0.022840
     22          1           0        3.758310    0.728030    0.016130
     23          1           0        4.925180    4.469440   -0.025530
     24          1           0        6.060640    0.319890    0.098840
     25          6           0        7.330790    5.586950   -0.005960
     26          9           0        6.188750    6.369270   -0.047400
     27          9           0        8.074690    5.888380   -1.132820
     28          9           0        8.030850    5.944500    1.132500
     29          7           0        9.450430    3.374090    0.089250
     30          8           0       10.241440    2.479550    0.126470
     31          8           0        9.863560    4.491880    0.071060
     32          1           0        8.368400    0.944140    0.126180
     33          8           0        1.427020   -1.189830   -0.222980
     34          8           0        3.649690   -1.331330   -0.244840
     35          6           0        2.567990   -1.902120   -0.318390
     36          6           0        2.482060   -3.391860   -0.517120
     37          6           0        3.849540   -4.066360   -0.618970
     38          1           0        1.914670   -3.592500   -1.450940
     39          1           0        1.926270   -3.833010    0.337680
     40          1           0        4.416310   -3.659840   -1.483790
     41          1           0        3.714260   -5.158760   -0.765720
     42          1           0        4.431840   -3.902310    0.312740
 ---------------------------------------------------------------------
                    Distance matrix (angstroms):
                    1          2          3          4          5
     1  C    0.000000
     2  C    1.525676   0.000000
     3  C    2.523872   1.532396   0.000000
     4  N    3.811347   2.463448   1.453821   0.000000
     5  C    4.976040   3.757571   2.459813   1.364631   0.000000
     6  O    5.161051   4.222346   2.719148   2.226656   1.220031
     7  N    6.171329   4.822407   3.713401   2.368506   1.373248
     8  C    7.497160   6.210131   4.989326   3.747029   2.531359
     9  C    7.947063   6.832404   5.435599   4.451093   3.092654
    10  C    8.603955   7.225261   6.149982   4.794049   3.748175
    11  C    9.892754   8.551989   7.403115   6.099397   4.955143
    12  C   10.264696   9.040900   7.740955   6.586188   5.299521
    13  C    9.349371   8.248764   6.844565   5.861908   4.506873
    14  H    1.110364   2.166854   3.484118   4.622907   5.879571
    15  H    1.110893   2.176830   2.782661   4.125227   5.159618
    16  H    1.110863   2.177329   2.781470   4.126189   5.157809
    17  H    2.158383   1.111775   2.173321   2.718699   4.023563
    18  H    2.159495   1.111880   2.172353   2.719406   4.021031
    19  H    2.759460   2.168209   1.112452   2.101462   2.761850
    20  H    2.758465   2.169211   1.112468   2.100751   2.764574
    21  H    4.104913   2.592320   2.238814   1.140088   2.168083
    22  H    6.273250   4.805408   4.011957   2.558539   2.140969
    23  H    7.373131   6.406007   4.925002   4.186051   2.847646
    24  H    8.596526   7.141324   6.256331   4.823874   4.025310
    25  C    9.992558   9.058225   7.571524   6.807656   5.449298
    26  F    9.196565   8.425914   6.899888   6.375345   5.080660
    27  F   10.854052   9.928076   8.453265   7.687238   6.345557
    28  F   10.824880   9.905459   8.428215   7.672126   6.329448
    29  N   11.690668  10.479847   9.167075   8.026783   6.733813
    30  O   12.459785  11.176615   9.942511   8.713496   7.484367
    31  O   12.221866  11.101297   9.714214   8.685727   7.346667
    32  H   10.720576   9.328596   8.269047   6.909706   5.855600
    33  O    5.291087   3.839144   4.121345   3.206677   4.044987
    34  O    7.088650   5.566501   5.298174   3.955969   4.060845
    35  C    6.605287   5.125425   5.201147   4.054442   4.540610
    36  C    7.664084   6.263101   6.555785   5.505091   6.044039
    37  C    9.064765   7.617492   7.725974   6.527216   6.806635
    38  H    7.620152   6.302273   6.724414   5.800474   6.442271
    39  H    7.690800   6.353802   6.804816   5.859619   6.515592
    40  H    9.270268   7.808727   7.777865   6.528950   6.668993
    41  H    9.828483   8.430024   8.665100   7.527750   7.878379
    42  H    9.331393   7.853043   7.849778   6.583322   6.741044
                    6          7          8          9         10
     6  O    0.000000
     7  N    2.262234   0.000000
     8  C    2.894947   1.446012   0.000000
     9  C    2.861390   2.533447   1.414135   0.000000
    10  C    4.274498   2.438238   1.400147   2.405052   0.000000
    11  C    5.269843   3.731576   2.434939   2.779827   1.389830
    12  C    5.289535   4.309233   2.865131   2.454718   2.445009
    13  C    4.223838   3.828182   2.478601   1.416551   2.815045
    14  H    6.182199   6.987267   8.364259   8.914768   9.391796
    15  H    5.193141   6.406380   7.665329   7.998724   8.831274
    16  H    5.185817   6.406409   7.661547   7.998722   8.820898
    17  H    4.636445   4.927918   6.337079   7.069703   7.250668
    18  H    4.628902   4.927138   6.331970   7.069798   7.237055
    19  H    2.716782   4.052017   5.194368   5.471971   6.414312
    20  H    2.726820   4.052933   5.200083   5.470302   6.429804
    21  H    3.252374   2.618239   4.062425   5.041449   4.834843
    22  H    3.256302   1.147562   2.208323   3.523286   2.617257
    23  H    2.214821   2.796261   2.164710   1.068584   3.384942
    24  H    4.797766   2.653155   2.163090   3.399187   1.080863
    25  C    4.853715   5.057277   3.848921   2.524915   4.338449
    26  F    4.227070   5.049318   4.138567   2.727493   4.996793
    27  F    5.774633   5.907242   4.673626   3.457038   5.000400
    28  F    5.742604   5.905834   4.673305   3.456502   5.001279
    29  N    6.664833   5.746352   4.304295   3.804998   3.736531
    30  O    7.563343   6.366027   4.970348   4.741392   4.099724
    31  O    7.091418   6.510855   5.071652   4.279261   4.739082
    32  H    6.275507   4.557906   3.393317   3.861740   2.119673
    33  O    5.221362   3.942574   5.223331   6.467113   5.509276
    34  O    5.248330   3.218830   4.018839   5.418549   3.797137
    35  C    5.758278   4.013220   5.039038   6.401949   4.977573
    36  C    7.260437   5.474044   6.394135   7.783754   6.132215
    37  C    8.002634   5.967365   6.589453   7.993596   6.005540
    38  H    7.631355   5.994568   6.972601   8.321890   6.795942
    39  H    7.729695   6.041248   7.023518   8.408636   6.801939
    40  H    7.820439   5.750488   6.242502   7.606395   5.595445
    41  H    9.080652   7.071602   7.695119   9.097261   7.074853
    42  H    7.917722   5.799491   6.298930   7.701059   5.601177
                   11         12         13         14         15
    11  C    0.000000
    12  C    1.408014   0.000000
    13  C    2.435366   1.433099   0.000000
    14  H   10.717750  11.177911  10.326397   0.000000
    15  H   10.077685  10.361032   9.376499   1.804684   0.000000
    16  H   10.064986  10.351174   9.372779   1.804823   1.811048
    17  H    8.599046   9.178159   8.474936   2.483909   2.501804
    18  H    8.583382   9.166738   8.470953   2.484318   3.089248
    19  H    7.596678   7.819658   6.839837   3.771351   3.131649
    20  H    7.614214   7.832154   6.843207   3.771857   2.551776
    21  H    6.210862   6.918587   6.405418   4.691589   4.558569
    22  H    4.006922   4.887624   4.686484   6.946096   6.612257
    23  H    3.848010   3.406550   2.127087   8.395977   7.351960
    24  H    2.119739   3.402252   3.895178   9.284589   8.900264
    25  C    3.860560   2.597661   1.524851  11.031599   9.922109
    26  F    4.852201   3.767784   2.422178  10.273247   9.053637
    27  F    4.348353   3.047035   2.381844  11.890062  10.680068
    28  F    4.349537   3.047719   2.381875  11.862509  10.838745
    29  N    2.443036   1.441321   2.537375  12.613196  11.768792
    30  O    2.709952   2.286917   3.606550  13.333654  12.584783
    31  O    3.541646   2.302779   2.873111  13.193484  12.239521
    32  H    1.082721   2.170431   3.429163  11.493154  10.944491
    33  O    6.871428   7.879844   7.697524   5.494474   5.837766
    34  O    5.042323   6.236095   6.392451   7.489104   7.532655
    35  C    6.253228   7.414525   7.475733   6.841267   7.112045
    36  C    7.297525   8.555973   8.770500   7.725760   8.197976
    37  C    6.967329   8.319043   8.778391   9.194718   9.564191
    38  H    7.970804   9.189014   9.344527   7.600372   8.063593
    39  H    7.981237   9.237460   9.427468   7.649352   8.346578
    40  H    6.480612   7.814442   8.317506   9.479796   9.655068
    41  H    7.980905   9.349147   9.857489   9.859833  10.344316
    42  H    6.491381   7.869812   8.409891   9.522225   9.896306
                   16         17         18         19         20
    16  H    0.000000
    17  H    3.088773   0.000000
    18  H    2.504833   1.808558   0.000000
    19  H    2.551564   3.090264   2.502816   0.000000
    20  H    3.126707   2.506656   3.090336   1.811530   0.000000
    21  H    4.562373   2.562003   2.566555   2.964029   2.961808
    22  H    6.616611   4.757317   4.761767   4.494919   4.491216
    23  H    7.359287   6.731916   6.740447   4.864606   4.850436
    24  H    8.886974   7.074152   7.055975   6.616267   6.636454
    25  C    9.922223   9.365188   9.365913   7.443453   7.440255
    26  F    9.061056   8.812008   8.820629   6.683892   6.669547
    27  F   10.869133  10.126621  10.326150   8.439652   8.191635
    28  F   10.646419  10.308046  10.106531   8.163027   8.409403
    29  N   11.756496  10.614522  10.600641   9.216389   9.231405
    30  O   12.568786  11.252590  11.234170  10.045001  10.065064
    31  O   12.229156  11.290828  11.279651   9.689317   9.700930
    32  H   10.928173   9.317596   9.297387   8.502808   8.525110
    33  O    5.921032   3.385845   3.523822   4.885123   4.789213
    34  O    7.602497   5.232465   5.329738   5.942458   5.857456
    35  C    7.205693   4.673276   4.811243   5.924395   5.815457
    36  C    8.325064   5.701017   5.878668   7.301318   7.161897
    37  C    9.693151   7.083257   7.253040   8.436004   8.293149
    38  H    8.397037   5.574763   6.043076   7.580280   7.215062
    39  H    8.287458   5.885427   5.797776   7.458425   7.530076
    40  H    9.941037   7.215717   7.590699   8.546502   8.217406
    41  H   10.490413   7.844165   8.032302   9.393180   9.235651
    42  H    9.850891   7.461921   7.398580   8.440064   8.498463
                   21         22         23         24         25
    21  H    0.000000
    22  H    2.276687   0.000000
    23  H    4.981064   3.919371   0.000000
    24  H    4.607970   2.339689   4.303894   0.000000
    25  C    7.512975   6.030937   2.652578   5.419058   0.000000
    26  F    7.238811   6.142855   2.281763   6.052503   1.384918
    27  F    8.364538   6.824986   3.627519   6.048261   1.383496
    28  F    8.357768   6.834650   3.627950   6.048671   1.383480
    29  N    8.350197   6.277516   4.657344   4.562774   3.065728
    30  O    8.903494   6.716470   5.678502   4.705739   4.259737
    31  O    9.128533   7.172424   4.939375   5.645217   2.760441
    32  H    6.883751   4.616464   4.930164   2.390856   4.759179
    33  O    2.072005   3.028246   6.656083   4.883980   8.990347
    34  O    3.095989   2.078670   5.943392   2.942333   7.840291
    35  C    2.992291   2.906278   6.799918   4.160530   8.880768
    36  C    4.406734   4.345879   8.246850   5.192565  10.217167
    37  C    5.507630   4.837132   8.623749   4.964212  10.280140
    38  H    4.715970   4.921207   8.722949   5.907426  10.755679
    39  H    4.730788   4.925734   8.834934   5.864865  10.865660
    40  H    5.598842   4.683602   8.274700   4.587678   9.807207
    41  H    6.472539   5.938647   9.732237   6.022339  11.363398
    42  H    5.613047   4.688461   8.393093   4.530531   9.927313
                   26         27         28         29         30
    26  F    0.000000
    27  F    2.228489   0.000000
    28  F    2.228436   2.266439   0.000000
    29  N    4.430387   3.115729   3.116181   0.000000
    30  O    5.620004   4.230926   4.231393   1.194690   0.000000
    31  O    4.128299   2.568968   2.568187   1.191831   2.048252
    32  H    5.849191   5.110465   5.111773   2.660227   2.421934
    33  O    8.935597   9.752968   9.815628   9.235906   9.554081
    34  O    8.110798   8.514302   8.604030   7.476709   7.623113
    35  C    9.033229   9.574912   9.670438   8.681736   8.847529
    36  C   10.451787  10.852624  10.985351   9.731595   9.751699
    37  C   10.709854  10.826485  10.989464   9.339799   9.179379
    38  H   10.930441  11.310797  11.620507  10.377535  10.425599
    39  H   11.063613  11.596157  11.554105  10.421948  10.441986
    40  H   10.285320  10.231101  10.590242   8.791643   8.614940
    41  H   11.812475  11.882231  12.063108  10.317177  10.086816
    42  H   10.426974  10.545976  10.515919   8.842069   8.632166
                   31         32         33         34         35
    31  O    0.000000
    32  H    3.850325   0.000000
    33  O   10.175632   7.270385   0.000000
    34  O    8.521839   5.251823   2.227277   0.000000
    35  C    9.708772   6.476387   1.348433   1.225270   0.000000
    36  C   10.816000   7.339191   2.459383   2.383963   1.505391
    37  C   10.482750   6.788259   3.781512   2.767725   2.533111
    38  H   11.439342   8.044815   2.741990   3.094812   2.137026
    39  H   11.505453   8.022901   2.747725   3.093204   2.137889
    40  H    9.926763   6.277551   4.077554   2.746755   2.804287
    41  H   11.473837   7.726700   4.612856   3.863251   3.481342
    42  H   10.001221   6.246550   4.083318   2.744557   2.805891
                   36         37         38         39         40
    36  C    0.000000
    37  C    1.528177   0.000000
    38  H    1.110949   2.158805   0.000000
    39  H    1.110945   2.160694   1.804755   0.000000
    40  H    2.178896   1.111036   2.502762   3.089990   0.000000
    41  H    2.168422   1.110484   2.482181   2.484354   1.804234
    42  H    2.179649   1.110887   3.089125   2.506652   1.812885
                   41         42
    41  H    0.000000
    42  H    1.804623   0.000000
 Stoichiometry    C14H17F3N3O5(1-)
 Framework group  C1[X(C14H17F3N3O5)]
 Deg. of freedom   120
 Full point group                 C1      NOp   1
 Largest Abelian subgroup         C1      NOp   1
 Largest concise Abelian subgroup C1      NOp   1
                         Standard orientation:                         
 ---------------------------------------------------------------------
 Center     Atomic      Atomic             Coordinates (Angstroms)
 Number     Number       Type             X           Y           Z
 ---------------------------------------------------------------------
      1          6           0       -5.612820   -4.145491   -0.032944
      2          6           0       -4.956267   -2.769325   -0.085786
      3          6           0       -3.428839   -2.880519   -0.032524
      4          7           0       -2.805677   -1.567869   -0.079590
      5          6           0       -1.449341   -1.420405   -0.050876
      6          8           0       -0.749658   -2.417995    0.010230
      7          7           0       -0.898741   -0.163182   -0.096051
      8          6           0        0.503460    0.189914   -0.085800
      9          6           0        1.566246   -0.737484    0.015186
     10          6           0        0.837920    1.546029   -0.183275
     11          6           0        2.161301    1.970633   -0.183427
     12          6           0        3.232569    1.062233   -0.084949
     13          6           0        2.923950   -0.333445    0.018067
     14          1           0       -6.716650   -4.032729   -0.074797
     15          1           0       -5.343910   -4.665095    0.911399
     16          1           0       -5.285157   -4.763342   -0.896027
     17          1           0       -5.315372   -2.167068    0.776984
     18          1           0       -5.257895   -2.262144   -1.028158
     19          1           0       -3.077474   -3.484041   -0.898464
     20          1           0       -3.132418   -3.391965    0.909890
     21          1           0       -3.471838   -0.644896   -0.144013
     22          1           0       -1.641851    0.709501   -0.151813
     23          1           0        1.371066   -1.785009    0.095608
     24          1           0        0.069085    2.301431   -0.264056
     25          6           0        3.996898   -1.410988    0.131443
     26          9           0        3.463686   -2.686074    0.219969
     27          9           0        4.753171   -1.203399    1.271188
     28          9           0        4.810347   -1.384185   -0.987306
     29          7           0        4.573098    1.591677   -0.093692
     30          8           0        4.750772    2.769682   -0.183240
     31          8           0        5.527181    0.881837   -0.014229
     32          1           0        2.344714    3.034713   -0.263282
     33          8           0       -4.646949    1.056654   -0.013444
     34          8           0       -2.860670    2.387036   -0.006129
     35          6           0       -4.080363    2.279170    0.038586
     36          6           0       -4.968502    3.489174    0.153925
     37          6           0       -4.191591    4.803764    0.213826
     38          1           0       -5.579600    3.393356    1.076739
     39          1           0       -5.650663    3.514235   -0.722561
     40          1           0       -3.519344    4.814163    1.098347
     41          1           0       -4.903479    5.651718    0.299640
     42          1           0       -3.587956    4.938440   -0.708972
 ---------------------------------------------------------------------
 Rotational constants (GHZ):      0.2637330      0.0958791      0.0715479
 General basis read from cards:  (6D, 7F)
 There are   509 symmetry adapted cartesian basis functions of A   symmetry.
 There are   509 symmetry adapted basis functions of A   symmetry.
   509 basis functions,   868 primitive gaussians,   509 cartesian basis functions
    95 alpha electrons       95 beta electrons
       nuclear repulsion energy      2202.7697039159 Hartrees.
 NAtoms=   42 NActive=   42 NUniq=   42 SFac= 1.00D+00 NAtFMM=   60 NAOKFM=F Big=F
 Integral buffers will be    131072 words long.
 Raffenetti 2 integral format.
 Two-electron integral symmetry is turned on.
 ------------------------------------------------------------------------------
 Polarizable Continuum Model (PCM)
 =================================
 Model                : PCM (using non-symmetric T matrix).
 Atomic radii         : SMD-Coulomb.
 Polarization charges : Total charges.
 Charge compensation  : None.
 Solution method      : On-the-fly selection.
 Cavity type          : VdW (van der Waals Surface) (Alpha=1.000).
 Cavity algorithm     : GePol (No added spheres)
                        Default sphere list used, NSphG=   42.
                        Lebedev-Laikov grids with approx.  5.0 points / Ang**2.
                        Smoothing algorithm: York/Karplus (Gamma=1.0000).
                        Polarization charges: spherical gaussians, with
                                              point-specific exponents (IZeta= 3).
                        Self-potential: point-specific (ISelfS= 7).
                        Self-field    : sphere-specific E.n sum rule (ISelfD= 2).
 1st derivatives      : Analytical E(r).r(x)/FMM algorithm (CHGder, D1EAlg=3).
                        Cavity 1st derivative terms included.
 Solvent              : Water, Eps=  78.355300 Eps(inf)=   1.777849
 ------------------------------------------------------------------------------
 ------------------------------------------------------------------------------
 Atomic radii for non-electrostatic terms: SMD-CDS.
 ------------------------------------------------------------------------------
 Nuclear repulsion after PCM non-electrostatic terms =     2202.7886128584 Hartrees.
 One-electron integrals computed using PRISM.
 NBasis=   509 RedAO= T EigKep=  1.07D-06  NBF=   509
 NBsUse=   508 1.00D-06 EigRej=  2.22D-07 NBFU=   508
 ExpMin= 4.38D-02 ExpMax= 7.00D+03 ExpMxC= 1.05D+03 IAcc=3 IRadAn=         5 AccDes= 0.00D+00
 Harris functional with IExCor= 1009 and IRadAn=       5 diagonalized for initial guess.
 HarFok:  IExCor= 1009 AccDes= 0.00D+00 IRadAn=         5 IDoV= 1 UseB2=F ITyADJ=14
 ICtDFT=  3500011 ScaDFX=  1.000000  1.000000  1.000000  1.000000
 FoFCou: FMM=F IPFlag=           0 FMFlag=      100000 FMFlg1=           0
         NFxFlg=           0 DoJE=T BraDBF=F KetDBF=T FulRan=T
         wScrn=  0.000000 ICntrl=     500 IOpCl=  0 I1Cent=   200000004 NGrid=           0
         NMat0=    1 NMatS0=      1 NMatT0=    0 NMatD0=    1 NMtDS0=    0 NMtDT0=    0
 Petite list used in FoFCou.
 Requested convergence on RMS density matrix=1.00D-08 within 128 cycles.
 Requested convergence on MAX density matrix=1.00D-06.
 Requested convergence on             energy=1.00D-06.
 No special actions if energy rises.
 Inv3:  Mode=1 IEnd=    31105200.
 Iteration    1 A*A^-1 deviation from unit magnitude is 7.66D-15 for    389.
 Iteration    1 A*A^-1 deviation from orthogonality  is 3.49D-15 for   2758   2677.
 Iteration    1 A^-1*A deviation from unit magnitude is 6.44D-15 for   3181.
 Iteration    1 A^-1*A deviation from orthogonality  is 4.44D-10 for   2838   2832.
 Iteration    2 A*A^-1 deviation from unit magnitude is 1.07D-14 for    786.
 Iteration    2 A*A^-1 deviation from orthogonality  is 5.28D-15 for   2059    383.
 Iteration    2 A^-1*A deviation from unit magnitude is 1.11D-15 for   1002.
 Iteration    2 A^-1*A deviation from orthogonality  is 4.12D-16 for   3181   1577.
 Error on total polarization charges =  0.07219
 SCF Done:  E(RM062X) =  -1383.22194466     A.U. after   16 cycles
            NFock= 16  Conv=0.50D-08     -V/T= 2.0089
 SMD-CDS (non-electrostatic) energy       (kcal/mol) =      11.87
 (included in total energy above)

 **********************************************************************

            Population analysis using the SCF density.

 **********************************************************************

 Orbital symmetries:
       Occupied  (A) (A) (A) (A) (A) (A) (A) (A) (A) (A) (A) (A)
                 (A) (A) (A) (A) (A) (A) (A) (A) (A) (A) (A) (A)
                 (A) (A) (A) (A) (A) (A) (A) (A) (A) (A) (A) (A)
                 (A) (A) (A) (A) (A) (A) (A) (A) (A) (A) (A) (A)
                 (A) (A) (A) (A) (A) (A) (A) (A) (A) (A) (A) (A)
                 (A) (A) (A) (A) (A) (A) (A) (A) (A) (A) (A) (A)
                 (A) (A) (A) (A) (A) (A) (A) (A) (A) (A) (A) (A)
                 (A) (A) (A) (A) (A) (A) (A) (A) (A) (A) (A)
       Virtual   (A) (A) (A) (A) (A) (A) (A) (A) (A) (A) (A) (A)
                 (A) (A) (A) (A) (A) (A) (A) (A) (A) (A) (A) (A)
                 (A) (A) (A) (A) (A) (A) (A) (A) (A) (A) (A) (A)
                 (A) (A) (A) (A) (A) (A) (A) (A) (A) (A) (A) (A)
                 (A) (A) (A) (A) (A) (A) (A) (A) (A) (A) (A) (A)
                 (A) (A) (A) (A) (A) (A) (A) (A) (A) (A) (A) (A)
                 (A) (A) (A) (A) (A) (A) (A) (A) (A) (A) (A) (A)
                 (A) (A) (A) (A) (A) (A) (A) (A) (A) (A) (A) (A)
                 (A) (A) (A) (A) (A) (A) (A) (A) (A) (A) (A) (A)
                 (A) (A) (A) (A) (A) (A) (A) (A) (A) (A) (A) (A)
                 (A) (A) (A) (A) (A) (A) (A) (A) (A) (A) (A) (A)
                 (A) (A) (A) (A) (A) (A) (A) (A) (A) (A) (A) (A)
                 (A) (A) (A) (A) (A) (A) (A) (A) (A) (A) (A) (A)
                 (A) (A) (A) (A) (A) (A) (A) (A) (A) (A) (A) (A)
                 (A) (A) (A) (A) (A) (A) (A) (A) (A) (A) (A) (A)
                 (A) (A) (A) (A) (A) (A) (A) (A) (A) (A) (A) (A)
                 (A) (A) (A) (A) (A) (A) (A) (A) (A) (A) (A) (A)
                 (A) (A) (A) (A) (A) (A) (A) (A) (A) (A) (A) (A)
                 (A) (A) (A) (A) (A) (A) (A) (A) (A) (A) (A) (A)
                 (A) (A) (A) (A) (A) (A) (A) (A) (A) (A) (A) (A)
                 (A) (A) (A) (A) (A) (A) (A) (A) (A) (A) (A) (A)
                 (A) (A) (A) (A) (A) (A) (A) (A) (A) (A) (A) (A)
                 (A) (A) (A) (A) (A) (A) (A) (A) (A) (A) (A) (A)
                 (A) (A) (A) (A) (A) (A) (A) (A) (A) (A) (A) (A)
                 (A) (A) (A) (A) (A) (A) (A) (A) (A) (A) (A) (A)
                 (A) (A) (A) (A) (A) (A) (A) (A) (A) (A) (A) (A)
                 (A) (A) (A) (A) (A) (A) (A) (A) (A) (A) (A) (A)
                 (A) (A) (A) (A) (A) (A) (A) (A) (A) (A) (A) (A)
                 (A) (A) (A) (A) (A) (A) (A) (A) (A) (A) (A) (A)
                 (A) (A) (A) (A) (A) (A) (A) (A) (A) (A) (A) (A)
                 (A) (A) (A) (A) (A) (A) (A) (A) (A) (A) (A) (A)
                 (A) (A) (A) (A) (A) (A) (A) (A) (A) (A) (A) (A)
                 (A) (A) (A) (A) (A) (A) (A) (A) (A) (A) (A) (A)
                 (A) (A) (A) (A) (A) (A) (A) (A) (A) (A) (A) (A)
                 (A) (A) (A) (A) (A)
 The electronic state is 1-A.
 Alpha  occ. eigenvalues --  -25.31600 -25.31039 -25.31036 -19.69196 -19.69053
 Alpha  occ. eigenvalues --  -19.61667 -19.61432 -19.59319 -15.03416 -14.81467
 Alpha  occ. eigenvalues --  -14.78288 -10.83858 -10.68823 -10.65235 -10.64334
 Alpha  occ. eigenvalues --  -10.63702 -10.62615 -10.59262 -10.58779 -10.57922
 Alpha  occ. eigenvalues --  -10.57739 -10.54333 -10.54294 -10.53294 -10.53246
 Alpha  occ. eigenvalues --   -1.45326  -1.41640  -1.37416  -1.37404  -1.20647
 Alpha  occ. eigenvalues --   -1.18843  -1.16728  -1.04700  -1.04044  -1.01626
 Alpha  occ. eigenvalues --   -0.99980  -0.92237  -0.90549  -0.87117  -0.86019
 Alpha  occ. eigenvalues --   -0.83212  -0.80541  -0.76361  -0.73750  -0.71930
 Alpha  occ. eigenvalues --   -0.71302  -0.68945  -0.68618  -0.68482  -0.66852
 Alpha  occ. eigenvalues --   -0.65831  -0.65795  -0.63690  -0.62989  -0.61235
 Alpha  occ. eigenvalues --   -0.59353  -0.58383  -0.57647  -0.57191  -0.55367
 Alpha  occ. eigenvalues --   -0.55146  -0.54391  -0.54083  -0.53218  -0.52941
 Alpha  occ. eigenvalues --   -0.52915  -0.52326  -0.52270  -0.52049  -0.50486
 Alpha  occ. eigenvalues --   -0.50053  -0.49433  -0.48150  -0.47548  -0.45854
 Alpha  occ. eigenvalues --   -0.45509  -0.45108  -0.44143  -0.43629  -0.41954
 Alpha  occ. eigenvalues --   -0.41433  -0.40949  -0.39799  -0.39712  -0.39571
 Alpha  occ. eigenvalues --   -0.39204  -0.38676  -0.38658  -0.35490  -0.34047
 Alpha  occ. eigenvalues --   -0.33175  -0.32964  -0.32105  -0.31668  -0.28962
 Alpha virt. eigenvalues --   -0.07042  -0.01202   0.01674   0.02710   0.02882
 Alpha virt. eigenvalues --    0.03099   0.03805   0.03841   0.04202   0.04279
 Alpha virt. eigenvalues --    0.05125   0.05405   0.05637   0.06003   0.06352
 Alpha virt. eigenvalues --    0.06520   0.07497   0.07623   0.07644   0.08071
 Alpha virt. eigenvalues --    0.08565   0.08916   0.09070   0.09281   0.09348
 Alpha virt. eigenvalues --    0.09969   0.10304   0.10880   0.10905   0.11327
 Alpha virt. eigenvalues --    0.11882   0.12099   0.12228   0.12696   0.13237
 Alpha virt. eigenvalues --    0.13377   0.13705   0.14190   0.14238   0.14809
 Alpha virt. eigenvalues --    0.15379   0.15603   0.15841   0.15980   0.16629
 Alpha virt. eigenvalues --    0.17005   0.17277   0.17516   0.18318   0.18447
 Alpha virt. eigenvalues --    0.18898   0.19633   0.19827   0.20217   0.20750
 Alpha virt. eigenvalues --    0.21080   0.21390   0.21505   0.22038   0.22492
 Alpha virt. eigenvalues --    0.23016   0.23369   0.23484   0.23764   0.23985
 Alpha virt. eigenvalues --    0.24339   0.24445   0.24951   0.25184   0.25239
 Alpha virt. eigenvalues --    0.25497   0.25797   0.26314   0.26679   0.26966
 Alpha virt. eigenvalues --    0.27433   0.27644   0.27894   0.28207   0.28268
 Alpha virt. eigenvalues --    0.28455   0.28689   0.29078   0.29608   0.29805
 Alpha virt. eigenvalues --    0.30427   0.30549   0.30951   0.31273   0.31561
 Alpha virt. eigenvalues --    0.32000   0.32089   0.32264   0.32519   0.32800
 Alpha virt. eigenvalues --    0.33286   0.33414   0.33726   0.33908   0.34492
 Alpha virt. eigenvalues --    0.34773   0.35288   0.35655   0.36088   0.36432
 Alpha virt. eigenvalues --    0.36707   0.36718   0.37853   0.38139   0.38525
 Alpha virt. eigenvalues --    0.38670   0.39128   0.39279   0.39369   0.40230
 Alpha virt. eigenvalues --    0.41060   0.41360   0.41815   0.42156   0.42595
 Alpha virt. eigenvalues --    0.43350   0.44121   0.45114   0.45606   0.46088
 Alpha virt. eigenvalues --    0.46311   0.47050   0.47606   0.47725   0.48856
 Alpha virt. eigenvalues --    0.49133   0.49242   0.51054   0.51277   0.51570
 Alpha virt. eigenvalues --    0.53017   0.53667   0.54215   0.55453   0.55783
 Alpha virt. eigenvalues --    0.56782   0.58914   0.60395   0.61029   0.65197
 Alpha virt. eigenvalues --    0.67173   0.69453   0.70467   0.70856   0.71319
 Alpha virt. eigenvalues --    0.72681   0.73137   0.73718   0.74600   0.74908
 Alpha virt. eigenvalues --    0.75632   0.76877   0.76950   0.77350   0.77803
 Alpha virt. eigenvalues --    0.78006   0.78728   0.79654   0.81291   0.81875
 Alpha virt. eigenvalues --    0.82368   0.83242   0.83350   0.85494   0.86084
 Alpha virt. eigenvalues --    0.86830   0.87304   0.88547   0.89188   0.89932
 Alpha virt. eigenvalues --    0.90815   0.91756   0.93778   0.94645   0.95954
 Alpha virt. eigenvalues --    0.96772   0.97595   0.98955   0.99964   1.00261
 Alpha virt. eigenvalues --    1.01242   1.02110   1.03058   1.05404   1.05853
 Alpha virt. eigenvalues --    1.06203   1.06621   1.08396   1.08951   1.09341
 Alpha virt. eigenvalues --    1.11367   1.12063   1.13245   1.14048   1.15079
 Alpha virt. eigenvalues --    1.15757   1.16156   1.17181   1.17575   1.18095
 Alpha virt. eigenvalues --    1.18712   1.19552   1.20669   1.21124   1.21357
 Alpha virt. eigenvalues --    1.22706   1.24073   1.24911   1.25448   1.26247
 Alpha virt. eigenvalues --    1.27403   1.27486   1.28697   1.29780   1.30452
 Alpha virt. eigenvalues --    1.31336   1.32457   1.33805   1.34157   1.34631
 Alpha virt. eigenvalues --    1.35683   1.37080   1.37434   1.37816   1.39167
 Alpha virt. eigenvalues --    1.40045   1.41083   1.41879   1.43213   1.43515
 Alpha virt. eigenvalues --    1.44288   1.44588   1.45404   1.45631   1.46286
 Alpha virt. eigenvalues --    1.47332   1.48514   1.49419   1.50682   1.51145
 Alpha virt. eigenvalues --    1.51622   1.52469   1.54338   1.56582   1.57416
 Alpha virt. eigenvalues --    1.57999   1.59711   1.60210   1.63390   1.64583
 Alpha virt. eigenvalues --    1.65425   1.66140   1.66608   1.68150   1.70125
 Alpha virt. eigenvalues --    1.70988   1.71708   1.72643   1.73407   1.73798
 Alpha virt. eigenvalues --    1.74243   1.74538   1.75921   1.76475   1.78700
 Alpha virt. eigenvalues --    1.79717   1.80932   1.83012   1.83742   1.84741
 Alpha virt. eigenvalues --    1.85435   1.85961   1.86516   1.86876   1.87332
 Alpha virt. eigenvalues --    1.88099   1.88258   1.88538   1.88856   1.89424
 Alpha virt. eigenvalues --    1.90186   1.90946   1.91269   1.91355   1.92787
 Alpha virt. eigenvalues --    1.93858   1.94060   1.94731   1.95753   1.96089
 Alpha virt. eigenvalues --    1.96891   1.97177   1.97940   1.98751   1.99454
 Alpha virt. eigenvalues --    2.01293   2.02700   2.03048   2.03530   2.04096
 Alpha virt. eigenvalues --    2.04712   2.05728   2.06415   2.06644   2.06714
 Alpha virt. eigenvalues --    2.08149   2.09399   2.10373   2.10545   2.10580
 Alpha virt. eigenvalues --    2.11694   2.12171   2.12909   2.14386   2.14700
 Alpha virt. eigenvalues --    2.16757   2.18187   2.19959   2.21075   2.22139
 Alpha virt. eigenvalues --    2.23514   2.24569   2.25270   2.27000   2.29069
 Alpha virt. eigenvalues --    2.29753   2.29874   2.30945   2.31223   2.31346
 Alpha virt. eigenvalues --    2.33105   2.35713   2.37099   2.37348   2.38443
 Alpha virt. eigenvalues --    2.38867   2.40915   2.42258   2.43162   2.47872
 Alpha virt. eigenvalues --    2.48575   2.50618   2.54917   2.54996   2.55137
 Alpha virt. eigenvalues --    2.55472   2.58608   2.60785   2.62067   2.62550
 Alpha virt. eigenvalues --    2.65852   2.67118   2.69061   2.70543   2.72097
 Alpha virt. eigenvalues --    2.72641   2.74188   2.75540   2.76345   2.77860
 Alpha virt. eigenvalues --    2.80136   2.82080   2.84902   2.86767   2.87789
 Alpha virt. eigenvalues --    2.90878   2.94116   2.99717   3.01221   3.03063
 Alpha virt. eigenvalues --    3.05951   3.11505   3.12696   3.14773   3.15386
 Alpha virt. eigenvalues --    3.18138   3.19387   3.23900   3.26737   3.28837
 Alpha virt. eigenvalues --    3.34573   3.40355   3.42970   4.20115   4.22317
 Alpha virt. eigenvalues --    4.24175   4.28964   4.30461   4.31745   4.34135
 Alpha virt. eigenvalues --    4.40504   4.40891   4.43489   4.44913   4.46997
 Alpha virt. eigenvalues --    4.50644   4.53525   4.54904   4.58578   4.63667
 Alpha virt. eigenvalues --    4.65652   4.70871   4.76379   4.80733   4.90183
 Alpha virt. eigenvalues --    5.58445   6.19881   7.16215
          Condensed to atoms (all electrons):
               1          2          3          4          5          6
     1  C    5.797572  -0.147450   0.031030  -0.011718  -0.053899  -0.001378
     2  C   -0.147450   6.231824  -0.423498  -0.058720   0.165870   0.018751
     3  C    0.031030  -0.423498   7.183858   0.330553  -0.790555  -0.085707
     4  N   -0.011718  -0.058720   0.330553   7.618460   0.517148  -0.189658
     5  C   -0.053899   0.165870  -0.790555   0.517148   6.724717   0.620430
     6  O   -0.001378   0.018751  -0.085707  -0.189658   0.620430   8.457858
     7  N   -0.004096   0.011668  -0.187293  -0.318125   0.240690  -0.076437
     8  C   -0.010978   0.023785  -0.394841  -0.199992  -0.583486  -0.483594
     9  C    0.001896  -0.016062   0.004699   0.048728   0.424516   0.502627
    10  C   -0.003520   0.013291  -0.150950  -0.131445  -1.566091  -0.150437
    11  C   -0.000084   0.000862   0.022994  -0.018695   0.513302  -0.011531
    12  C   -0.000125   0.000165  -0.030299  -0.013434  -0.375376  -0.005571
    13  C    0.000151  -0.002202  -0.035441   0.029853  -0.370947   0.110069
    14  H    0.435424  -0.108700   0.026455   0.000393  -0.002356   0.000005
    15  H    0.423182  -0.069519  -0.010160   0.000536   0.000055  -0.000042
    16  H    0.421523  -0.068073  -0.011104   0.000420   0.001172  -0.000032
    17  H   -0.029520   0.425845  -0.087017   0.007448  -0.001026  -0.000094
    18  H   -0.019881   0.418345  -0.084526   0.006849  -0.004883  -0.000148
    19  H   -0.004375  -0.041468   0.444486  -0.050119  -0.038044   0.003032
    20  H   -0.000519  -0.045782   0.434504  -0.051374  -0.030594   0.002732
    21  H   -0.001151   0.002242  -0.056719   0.188607   0.027700   0.005315
    22  H    0.000170   0.000343   0.007319   0.028497  -0.018981   0.003722
    23  H    0.000013   0.000017   0.003209   0.000355   0.013537  -0.000076
    24  H   -0.000000   0.000017  -0.000072   0.000689   0.000127   0.000010
    25  C   -0.000080   0.000286  -0.007962   0.004307  -0.205022   0.003652
    26  F   -0.000000   0.000003   0.000063  -0.000002   0.003219  -0.000521
    27  F    0.000000  -0.000001   0.000027   0.000008   0.002888  -0.000003
    28  F    0.000000  -0.000001   0.000035   0.000010   0.003422   0.000009
    29  N    0.000001  -0.000002   0.000239  -0.000027   0.009638   0.000050
    30  O    0.000000  -0.000000   0.000008   0.000004   0.001292   0.000002
    31  O   -0.000000   0.000000  -0.000011   0.000002  -0.001370   0.000015
    32  H    0.000000   0.000000   0.000032   0.000011   0.004166   0.000001
    33  O    0.003618   0.006334  -0.007391  -0.026422   0.000908  -0.000452
    34  O    0.000117  -0.000949   0.011326   0.007316   0.021611  -0.000168
    35  C   -0.001739  -0.003874   0.001365  -0.009141  -0.014129  -0.000715
    36  C    0.001389  -0.001095   0.013643  -0.006743  -0.003403  -0.000422
    37  C   -0.000168  -0.000324  -0.000738   0.001250  -0.000425   0.000045
    38  H    0.000010   0.000053  -0.000037  -0.000035  -0.000102  -0.000000
    39  H   -0.000000   0.000010   0.000010   0.000004   0.000022  -0.000000
    40  H   -0.000000   0.000002  -0.000007   0.000000  -0.000017  -0.000000
    41  H    0.000000   0.000001  -0.000002  -0.000001   0.000010   0.000000
    42  H    0.000000   0.000006  -0.000014   0.000000  -0.000156   0.000000
               7          8          9         10         11         12
     1  C   -0.004096  -0.010978   0.001896  -0.003520  -0.000084  -0.000125
     2  C    0.011668   0.023785  -0.016062   0.013291   0.000862   0.000165
     3  C   -0.187293  -0.394841   0.004699  -0.150950   0.022994  -0.030299
     4  N   -0.318125  -0.199992   0.048728  -0.131445  -0.018695  -0.013434
     5  C    0.240690  -0.583486   0.424516  -1.566091   0.513302  -0.375376
     6  O   -0.076437  -0.483594   0.502627  -0.150437  -0.011531  -0.005571
     7  N    7.736978  -0.062200   0.103587  -0.067620   0.045996  -0.024926
     8  C   -0.062200  21.993374  -3.684762   0.115644  -0.724363  -2.672929
     9  C    0.103587  -3.684762  17.128891  -7.217265  -2.205364  -4.117352
    10  C   -0.067620   0.115644  -7.217265  24.907571  -4.670460  -2.312326
    11  C    0.045996  -0.724363  -2.205364  -4.670460  17.325810   0.357901
    12  C   -0.024926  -2.672929  -4.117352  -2.312326   0.357901  25.500037
    13  C    0.072337  -5.889479   4.246588  -2.847218  -4.684774  -5.862314
    14  H    0.000008  -0.000046   0.000001  -0.000002   0.000000  -0.000000
    15  H    0.000017  -0.000007  -0.000042   0.000005   0.000000  -0.000000
    16  H    0.000019  -0.000018   0.000011  -0.000004  -0.000000   0.000000
    17  H    0.000171  -0.000923   0.000258  -0.000036   0.000001   0.000000
    18  H    0.000049  -0.000735  -0.000360   0.000194   0.000013   0.000001
    19  H    0.000061  -0.005731   0.001229  -0.000299   0.000064  -0.000017
    20  H   -0.000531  -0.000363  -0.000835   0.000111  -0.000040   0.000023
    21  H    0.029531   0.001420   0.005777  -0.002079   0.000414   0.000094
    22  H    0.173914   0.033111   0.078024  -0.120053  -0.005626  -0.002771
    23  H   -0.015955   0.064828   0.337112   0.036149  -0.022740  -0.063899
    24  H   -0.003903  -0.048182   0.021737   0.236158   0.103667  -0.028764
    25  C    0.003513  -2.296180  -0.618115   1.079088  -0.688135  -1.801250
    26  F   -0.001104   0.183075   0.034679   0.007518   0.009603   0.026070
    27  F    0.000319   0.036133   0.058490  -0.011044   0.046126  -0.095241
    28  F    0.000302   0.042258   0.067201  -0.011237   0.045358  -0.104275
    29  N   -0.000012   0.084473   0.038892  -0.084026   0.106195  -0.474531
    30  O   -0.000012   0.058147   0.042011   0.166187   0.040413  -0.666546
    31  O    0.000057  -0.020397   0.040655   0.091857   0.192035  -0.247166
    32  H    0.000693   0.020435   0.001762  -0.252629   0.330466   0.124353
    33  O    0.011387  -0.004157  -0.001016  -0.000368  -0.001323   0.000402
    34  O    0.001604  -0.155916  -0.005618   0.081636   0.050504  -0.000356
    35  C   -0.011092   0.046121  -0.011503  -0.001981  -0.027811  -0.001201
    36  C   -0.011594   0.001691  -0.005649  -0.010031   0.000117   0.000246
    37  C    0.003130  -0.021276  -0.003637   0.012396   0.010505   0.000654
    38  H    0.000058   0.000040  -0.000014   0.000008  -0.000070  -0.000002
    39  H    0.000075  -0.000745  -0.000064   0.000637   0.000109   0.000003
    40  H    0.000048  -0.002507  -0.000191   0.001287   0.001392   0.000062
    41  H   -0.000002   0.000099   0.000006  -0.000098  -0.000013   0.000000
    42  H    0.000004   0.001227   0.000086  -0.000149  -0.001458  -0.000090
              13         14         15         16         17         18
     1  C    0.000151   0.435424   0.423182   0.421523  -0.029520  -0.019881
     2  C   -0.002202  -0.108700  -0.069519  -0.068073   0.425845   0.418345
     3  C   -0.035441   0.026455  -0.010160  -0.011104  -0.087017  -0.084526
     4  N    0.029853   0.000393   0.000536   0.000420   0.007448   0.006849
     5  C   -0.370947  -0.002356   0.000055   0.001172  -0.001026  -0.004883
     6  O    0.110069   0.000005  -0.000042  -0.000032  -0.000094  -0.000148
     7  N    0.072337   0.000008   0.000017   0.000019   0.000171   0.000049
     8  C   -5.889479  -0.000046  -0.000007  -0.000018  -0.000923  -0.000735
     9  C    4.246588   0.000001  -0.000042   0.000011   0.000258  -0.000360
    10  C   -2.847218  -0.000002   0.000005  -0.000004  -0.000036   0.000194
    11  C   -4.684774   0.000000   0.000000  -0.000000   0.000001   0.000013
    12  C   -5.862314  -0.000000  -0.000000   0.000000   0.000000   0.000001
    13  C   21.931305  -0.000000  -0.000001   0.000001   0.000005  -0.000024
    14  H   -0.000000   0.481696  -0.023890  -0.023928  -0.003119  -0.003147
    15  H   -0.000001  -0.023890   0.487643  -0.028534  -0.004655   0.003775
    16  H    0.000001  -0.023928  -0.028534   0.487802   0.003780  -0.004626
    17  H    0.000005  -0.003119  -0.004655   0.003780   0.489029  -0.031343
    18  H   -0.000024  -0.003147   0.003775  -0.004626  -0.031343   0.488442
    19  H   -0.000155  -0.000055  -0.000311   0.002789   0.003775  -0.005279
    20  H    0.000004  -0.000053   0.002711  -0.000307  -0.005256   0.003776
    21  H   -0.000565  -0.000002   0.000000  -0.000000   0.000573   0.000702
    22  H    0.011867  -0.000000  -0.000000  -0.000000   0.000001   0.000001
    23  H   -0.070539  -0.000000   0.000000  -0.000000  -0.000000  -0.000000
    24  H    0.017727  -0.000000   0.000000   0.000000   0.000000   0.000000
    25  C   -0.672469  -0.000000  -0.000000  -0.000000  -0.000000  -0.000001
    26  F   -0.197866   0.000000  -0.000000   0.000000   0.000000  -0.000000
    27  F    0.042787  -0.000000  -0.000000   0.000000   0.000000  -0.000000
    28  F    0.043003  -0.000000  -0.000000  -0.000000  -0.000000   0.000000
    29  N    0.244869   0.000000   0.000000   0.000000   0.000000   0.000000
    30  O    0.266254  -0.000000  -0.000000  -0.000000  -0.000000  -0.000000
    31  O   -0.330747  -0.000000  -0.000000   0.000000  -0.000000  -0.000000
    32  H    0.104233  -0.000000   0.000000   0.000000   0.000000   0.000000
    33  O   -0.000841  -0.000022  -0.000001  -0.000001  -0.000184  -0.000619
    34  O    0.000076  -0.000000   0.000000   0.000000   0.000010   0.000008
    35  C   -0.001349  -0.000032  -0.000002  -0.000017  -0.000550  -0.000458
    36  C   -0.003653   0.000020  -0.000000  -0.000004  -0.000359   0.000203
    37  C    0.000260  -0.000000  -0.000000  -0.000000  -0.000013  -0.000018
    38  H   -0.000001  -0.000000  -0.000000   0.000000  -0.000000  -0.000000
    39  H   -0.000005  -0.000000   0.000000   0.000000   0.000000  -0.000000
    40  H    0.000001   0.000000   0.000000  -0.000000  -0.000000   0.000000
    41  H    0.000000   0.000000  -0.000000  -0.000000  -0.000000  -0.000000
    42  H    0.000016   0.000000  -0.000000   0.000000   0.000000  -0.000000
              19         20         21         22         23         24
     1  C   -0.004375  -0.000519  -0.001151   0.000170   0.000013  -0.000000
     2  C   -0.041468  -0.045782   0.002242   0.000343   0.000017   0.000017
     3  C    0.444486   0.434504  -0.056719   0.007319   0.003209  -0.000072
     4  N   -0.050119  -0.051374   0.188607   0.028497   0.000355   0.000689
     5  C   -0.038044  -0.030594   0.027700  -0.018981   0.013537   0.000127
     6  O    0.003032   0.002732   0.005315   0.003722  -0.000076   0.000010
     7  N    0.000061  -0.000531   0.029531   0.173914  -0.015955  -0.003903
     8  C   -0.005731  -0.000363   0.001420   0.033111   0.064828  -0.048182
     9  C    0.001229  -0.000835   0.005777   0.078024   0.337112   0.021737
    10  C   -0.000299   0.000111  -0.002079  -0.120053   0.036149   0.236158
    11  C    0.000064  -0.000040   0.000414  -0.005626  -0.022740   0.103667
    12  C   -0.000017   0.000023   0.000094  -0.002771  -0.063899  -0.028764
    13  C   -0.000155   0.000004  -0.000565   0.011867  -0.070539   0.017727
    14  H   -0.000055  -0.000053  -0.000002  -0.000000  -0.000000  -0.000000
    15  H   -0.000311   0.002711   0.000000  -0.000000   0.000000   0.000000
    16  H    0.002789  -0.000307  -0.000000  -0.000000  -0.000000   0.000000
    17  H    0.003775  -0.005256   0.000573   0.000001  -0.000000   0.000000
    18  H   -0.005279   0.003776   0.000702   0.000001  -0.000000   0.000000
    19  H    0.496701  -0.040074   0.001583   0.000004  -0.000000   0.000000
    20  H   -0.040074   0.496674   0.001734   0.000004  -0.000000   0.000000
    21  H    0.001583   0.001734   0.260231   0.003502   0.000000   0.000004
    22  H    0.000004   0.000004   0.003502   0.252272  -0.000092   0.004444
    23  H   -0.000000  -0.000000   0.000000  -0.000092   0.400332  -0.000096
    24  H    0.000000   0.000000   0.000004   0.004444  -0.000096   0.410856
    25  C   -0.000016  -0.000019  -0.000033   0.000786   0.005532   0.004272
    26  F    0.000000  -0.000000   0.000000  -0.000001   0.008370   0.000000
    27  F   -0.000000   0.000000  -0.000000  -0.000000  -0.000008   0.000001
    28  F    0.000000  -0.000000  -0.000000  -0.000000  -0.000014   0.000001
    29  N    0.000000   0.000000   0.000000  -0.000020  -0.000077  -0.000249
    30  O   -0.000000  -0.000000  -0.000000   0.000001   0.000041   0.000013
    31  O   -0.000000  -0.000000  -0.000000  -0.000000  -0.000076   0.000046
    32  H   -0.000000  -0.000000  -0.000000  -0.000007   0.000008  -0.003477
    33  O    0.000004  -0.000045   0.042146   0.002384   0.000000   0.000019
    34  O   -0.000001  -0.000005   0.001154   0.040206   0.000001  -0.000865
    35  C    0.000069   0.000263  -0.006062  -0.004873  -0.000007  -0.000808
    36  C    0.000006   0.000057   0.002087   0.002799  -0.000000   0.000720
    37  C    0.000001  -0.000001  -0.000350  -0.000082  -0.000000  -0.000287
    38  H   -0.000000  -0.000000  -0.000000  -0.000005   0.000000   0.000000
    39  H   -0.000000   0.000000  -0.000002  -0.000006   0.000000  -0.000000
    40  H   -0.000000   0.000000   0.000000  -0.000001   0.000000   0.000000
    41  H   -0.000000  -0.000000   0.000000   0.000000  -0.000000   0.000000
    42  H    0.000000   0.000000   0.000000  -0.000001  -0.000000   0.000001
              25         26         27         28         29         30
     1  C   -0.000080  -0.000000   0.000000   0.000000   0.000001   0.000000
     2  C    0.000286   0.000003  -0.000001  -0.000001  -0.000002  -0.000000
     3  C   -0.007962   0.000063   0.000027   0.000035   0.000239   0.000008
     4  N    0.004307  -0.000002   0.000008   0.000010  -0.000027   0.000004
     5  C   -0.205022   0.003219   0.002888   0.003422   0.009638   0.001292
     6  O    0.003652  -0.000521  -0.000003   0.000009   0.000050   0.000002
     7  N    0.003513  -0.001104   0.000319   0.000302  -0.000012  -0.000012
     8  C   -2.296180   0.183075   0.036133   0.042258   0.084473   0.058147
     9  C   -0.618115   0.034679   0.058490   0.067201   0.038892   0.042011
    10  C    1.079088   0.007518  -0.011044  -0.011237  -0.084026   0.166187
    11  C   -0.688135   0.009603   0.046126   0.045358   0.106195   0.040413
    12  C   -1.801250   0.026070  -0.095241  -0.104275  -0.474531  -0.666546
    13  C   -0.672469  -0.197866   0.042787   0.043003   0.244869   0.266254
    14  H   -0.000000   0.000000  -0.000000  -0.000000   0.000000  -0.000000
    15  H   -0.000000  -0.000000  -0.000000  -0.000000   0.000000  -0.000000
    16  H   -0.000000   0.000000   0.000000  -0.000000   0.000000  -0.000000
    17  H   -0.000000   0.000000   0.000000  -0.000000   0.000000  -0.000000
    18  H   -0.000001  -0.000000  -0.000000   0.000000   0.000000  -0.000000
    19  H   -0.000016   0.000000  -0.000000   0.000000   0.000000  -0.000000
    20  H   -0.000019  -0.000000   0.000000  -0.000000   0.000000  -0.000000
    21  H   -0.000033   0.000000  -0.000000  -0.000000   0.000000  -0.000000
    22  H    0.000786  -0.000001  -0.000000  -0.000000  -0.000020   0.000001
    23  H    0.005532   0.008370  -0.000008  -0.000014  -0.000077   0.000041
    24  H    0.004272   0.000000   0.000001   0.000001  -0.000249   0.000013
    25  C    9.499845   0.061077   0.063924   0.059352  -0.392565   0.011501
    26  F    0.061077   9.273864  -0.036057  -0.036302   0.000622   0.000059
    27  F    0.063924  -0.036057   9.233046  -0.043310  -0.004516  -0.001646
    28  F    0.059352  -0.036302  -0.043310   9.232095  -0.004540  -0.001639
    29  N   -0.392565   0.000622  -0.004516  -0.004540   7.077442   0.352322
    30  O    0.011501   0.000059  -0.001646  -0.001639   0.352322   7.911223
    31  O    0.232038   0.000712  -0.021009  -0.020780   0.322294  -0.102040
    32  H   -0.000354   0.000007  -0.000010  -0.000011  -0.041238   0.019791
    33  O   -0.000046  -0.000000  -0.000000  -0.000000   0.000001  -0.000000
    34  O    0.000140   0.000000   0.000000   0.000000   0.000031   0.000000
    35  C   -0.000495   0.000005   0.000001   0.000001   0.000024   0.000003
    36  C   -0.000231   0.000000   0.000000   0.000000  -0.000018   0.000002
    37  C    0.000029  -0.000000  -0.000000   0.000000   0.000007  -0.000002
    38  H   -0.000000  -0.000000  -0.000000  -0.000000   0.000000  -0.000000
    39  H   -0.000000  -0.000000  -0.000000  -0.000000  -0.000000   0.000000
    40  H    0.000000   0.000000   0.000000  -0.000000  -0.000000   0.000000
    41  H    0.000000   0.000000   0.000000   0.000000   0.000000   0.000000
    42  H    0.000000  -0.000000   0.000000   0.000000   0.000000  -0.000000
              31         32         33         34         35         36
     1  C   -0.000000   0.000000   0.003618   0.000117  -0.001739   0.001389
     2  C    0.000000   0.000000   0.006334  -0.000949  -0.003874  -0.001095
     3  C   -0.000011   0.000032  -0.007391   0.011326   0.001365   0.013643
     4  N    0.000002   0.000011  -0.026422   0.007316  -0.009141  -0.006743
     5  C   -0.001370   0.004166   0.000908   0.021611  -0.014129  -0.003403
     6  O    0.000015   0.000001  -0.000452  -0.000168  -0.000715  -0.000422
     7  N    0.000057   0.000693   0.011387   0.001604  -0.011092  -0.011594
     8  C   -0.020397   0.020435  -0.004157  -0.155916   0.046121   0.001691
     9  C    0.040655   0.001762  -0.001016  -0.005618  -0.011503  -0.005649
    10  C    0.091857  -0.252629  -0.000368   0.081636  -0.001981  -0.010031
    11  C    0.192035   0.330466  -0.001323   0.050504  -0.027811   0.000117
    12  C   -0.247166   0.124353   0.000402  -0.000356  -0.001201   0.000246
    13  C   -0.330747   0.104233  -0.000841   0.000076  -0.001349  -0.003653
    14  H   -0.000000  -0.000000  -0.000022  -0.000000  -0.000032   0.000020
    15  H   -0.000000   0.000000  -0.000001   0.000000  -0.000002  -0.000000
    16  H    0.000000   0.000000  -0.000001   0.000000  -0.000017  -0.000004
    17  H   -0.000000   0.000000  -0.000184   0.000010  -0.000550  -0.000359
    18  H   -0.000000   0.000000  -0.000619   0.000008  -0.000458   0.000203
    19  H   -0.000000  -0.000000   0.000004  -0.000001   0.000069   0.000006
    20  H   -0.000000  -0.000000  -0.000045  -0.000005   0.000263   0.000057
    21  H   -0.000000  -0.000000   0.042146   0.001154  -0.006062   0.002087
    22  H   -0.000000  -0.000007   0.002384   0.040206  -0.004873   0.002799
    23  H   -0.000076   0.000008   0.000000   0.000001  -0.000007  -0.000000
    24  H    0.000046  -0.003477   0.000019  -0.000865  -0.000808   0.000720
    25  C    0.232038  -0.000354  -0.000046   0.000140  -0.000495  -0.000231
    26  F    0.000712   0.000007  -0.000000   0.000000   0.000005   0.000000
    27  F   -0.021009  -0.000010  -0.000000   0.000000   0.000001   0.000000
    28  F   -0.020780  -0.000011  -0.000000   0.000000   0.000001   0.000000
    29  N    0.322294  -0.041238   0.000001   0.000031   0.000024  -0.000018
    30  O   -0.102040   0.019791  -0.000000   0.000000   0.000003   0.000002
    31  O    7.971201  -0.002235  -0.000000   0.000001   0.000002  -0.000001
    32  H   -0.002235   0.398145   0.000000  -0.000031  -0.000045   0.000001
    33  O   -0.000000   0.000000   8.811397  -0.178773   0.406780  -0.218874
    34  O    0.000001  -0.000031  -0.178773   8.626049   0.248808  -0.083895
    35  C    0.000002  -0.000045   0.406780   0.248808   5.214419  -0.345407
    36  C   -0.000001   0.000001  -0.218874  -0.083895  -0.345407   6.590653
    37  C    0.000000   0.000000   0.022021   0.038547  -0.093942  -0.073630
    38  H    0.000000   0.000000  -0.000831   0.001884  -0.067838   0.425905
[...]
 00015,0.00000008,-0.00000006,0.00098127,-0.00070963,0.00077621,0.00014
 812,-0.00038604,-0.00050052,-0.00047059,0.00268231,-0.00069074,-0.1276
 1731,-0.04573934,-0.18674974,0.00549356,0.00212903,0.00569019,0.138798
 08,0.04895892,0.19998050,0.00000034,0.00000045,0.,-0.00000110,-0.00000
 401,-0.00000103,0.00001450,-0.00000026,0.00000287,0.00003462,0.0000658
 4,0.00001805,-0.00010128,-0.00000753,0.00000271,0.00002595,0.00000587,
 -0.00000369,-0.00000330,-0.00013495,-0.00000554,0.00003165,-0.00000816
 ,0.00000625,-0.00000945,-0.00000431,-0.00000116,-0.00000310,0.00001024
 ,-0.00000394,0.00000241,0.00000082,0.00000115,-0.00000591,-0.00000130,
 -0.00000090,0.00000248,-0.00000349,-0.00000013,-0.00000059,0.00000053,
 0.,-0.00000023,0.00000008,-0.00000011,-0.00000022,0.00000007,0.,-0.000
 00057,0.00000220,0.00000114,0.00000074,0.00000120,-0.00000028,-0.00000
 254,0.00000249,0.00000085,-0.00000168,0.00000213,-0.00000081,-0.000017
 07,-0.00015713,-0.00003827,0.00000518,0.00019262,-0.00000261,-0.000000
 23,0.00000008,0.00000065,0.00000284,-0.00000013,0.00000223,-0.00000003
 ,0.00000328,0.00000180,0.00000013,-0.00000102,-0.00000032,-0.00000026,
 -0.00000079,0.00000008,-0.00000025,-0.00000124,-0.00000145,0.00000686,
 0.00000209,0.00000180,-0.00000226,0.00000067,-0.00000018,-0.00000233,-
 0.00000275,-0.00000174,-0.00000029,0.,0.00000061,-0.00033406,0.0022630
 7,-0.00053173,0.00024037,-0.00176433,-0.00084707,-0.00354745,-0.002847
 62,0.00316950,-0.08665607,-0.03342795,0.09287733,-0.01197210,-0.009075
 18,0.02515540,0.00856459,0.00790538,-0.01809454,0.09606573,0.00000085,
 0.00000205,0.00000195,0.00000308,-0.00000452,-0.00000508,-0.00001978,0
 .00001170,-0.00000030,0.00003229,-0.00001279,0.00004171,-0.00017711,0.
 00007680,0.00002229,0.00005274,-0.00010972,-0.00002132,-0.00006270,-0.
 00051568,0.00002766,0.00018470,-0.00000745,0.00001039,-0.00005055,-0.0
 0003211,-0.00001050,-0.00003912,0.00005256,-0.00000248,0.00002102,0.00
 000734,0.00000644,-0.00004578,-0.00001187,-0.00000291,0.00001874,-0.00
 001716,-0.00000281,0.00000198,-0.00000030,0.00000017,0.00000015,-0.000
 00024,0.00000007,0.00000051,-0.00000047,-0.00000027,-0.00000195,0.0000
 0144,-0.00000072,0.00000130,-0.00000196,0.00000115,0.00000347,-0.00000
 319,-0.00000147,0.00000641,-0.00000364,0.00000092,-0.00004639,0.000107
 89,-0.00006942,0.00004879,0.00088651,-0.00006946,0.00000099,0.00000252
 ,0.00000150,0.00002593,-0.00001134,0.00000310,0.00000278,0.00002123,0.
 00000266,0.00000091,-0.00000663,0.00000011,-0.00000394,-0.00000609,0.0
 0000325,-0.00000170,-0.00000649,-0.00000490,0.00005606,0.00000655,0.00
 000386,-0.00002117,0.00001000,0.00000367,-0.00001609,-0.00001521,-0.00
 000716,-0.00000215,-0.00000069,0.00000018,0.00019116,0.00038918,-0.003
 71823,-0.00264567,-0.00618694,-0.00405520,-0.01149481,-0.00871468,0.03
 294813,-0.03349917,-0.07616415,0.07925159,0.00686895,0.00503664,-0.015
 02609,0.00358586,0.00273447,-0.00714358,0.03505454,0.08251671,0.000001
 38,0.00000049,-0.00000037,-0.00000213,0.00000247,-0.00000128,0.0000070
 0,-0.00000226,-0.00000130,-0.00000172,0.00003143,-0.00000373,0.0000169
 7,-0.00000846,-0.00000188,-0.00000372,0.00001516,-0.00000006,0.0000161
 8,0.00003441,0.00002206,-0.00002340,0.00000322,0.00000372,0.00000725,0
 .00000485,-0.00000119,0.00000454,-0.00000488,-0.00001018,-0.00000233,-
 0.00000235,0.00000468,0.00000633,0.00000162,-0.00000166,-0.00000272,0.
 00000304,0.00000149,-0.00000165,-0.00000054,-0.00000017,0.,-0.00000029
 ,-0.00000001,-0.00000028,0.00000039,0.00000057,0.00000018,-0.00000069,
 0.00000004,-0.00000098,-0.00000021,0.00000195,-0.00000131,0.00000077,0
 .00000056,-0.00000215,0.00000058,0.00000030,-0.00000167,-0.00000983,0.
 00001318,-0.00001595,-0.00005866,-0.00005059,0.00000010,-0.00000034,-0
 .00000037,-0.00000239,0.00000094,-0.00000062,-0.00000066,-0.00000493,-
 0.00000098,-0.00000021,0.00000144,0.00000007,0.00000064,0.00000124,-0.
 00000026,0.00000047,0.00000165,0.00000134,-0.00000896,-0.00000272,-0.0
 0000163,0.00000304,-0.00000087,-0.00000008,0.00000303,0.00000349,0.000
 00189,-0.00000009,-0.00000036,-0.00000015,-0.00054582,-0.00003472,0.00
 085375,-0.00075103,0.00020378,-0.00069674,-0.00025119,-0.00284976,0.00
 223841,0.09190873,0.07683849,-0.24271146,0.00120440,0.00057268,-0.0031
 9125,0.00928638,0.00845278,-0.02044231,-0.10177458,-0.08210655,0.26181
 440,0.00000039,-0.00000047,-0.00000038,0.00000004,0.00000030,0.0000019
 7,0.00000899,-0.00000129,-0.00000014,0.00000704,0.00004748,-0.00000140
 ,-0.00001419,-0.00001005,0.00000317,0.00000358,0.00001833,-0.00000005,
 0.00000845,0.00003047,0.00000037,-0.00001264,-0.00000162,-0.00000370,0
 .00000355,0.00000275,0.00000194,0.00000287,-0.00000430,-0.00000007,-0.
 00000193,-0.00000037,-0.00000209,0.00000354,0.00000099,0.00000140,-0.0
 0000108,0.00000169,-0.00000046,-0.00000040,0.00000004,0.00000022,-0.00
 000047,0.00000076,-0.00000035,-0.00000005,0.00000005,0.00000007,-0.000
 00090,-0.00000019,0.00000021,0.00000013,-0.00000031,-0.00000184,-0.000
 00182,0.00000146,0.00000030,-0.00000183,0.00000230,-0.00000046,-0.0000
 0069,-0.00007616,-0.00000498,0.00000003,-0.00005016,-0.00000507,-0.000
 00012,-0.00000026,0.00000036,-0.00000155,0.00000426,0.00000091,-0.0000
 0023,-0.00000238,0.00000082,-0.00000031,0.00000088,-0.00000035,0.00000
 043,0.00000079,-0.00000058,0.00000010,0.00000064,0.,-0.00000482,-0.000
 00113,-0.00000005,0.00000197,-0.00000066,-0.00000038,0.00000148,0.0000
 0143,0.00000066,0.00000022,-0.00000047,-0.00000006,0.00001596,0.000539
 13,-0.00022951,0.00084728,0.00037369,-0.00035582,0.00006722,-0.0019854
 3,-0.00002618,-0.01207551,-0.00931264,0.02637591,-0.08950576,-0.033096
 52,0.09186372,0.00119214,-0.00077390,-0.00042903,-0.00477449,0.0034721
 4,0.00079004,0.09736311,0.00000003,-0.00000043,0.00000015,-0.00000011,
 0.00000049,0.00000064,0.00000296,-0.00000222,-0.00000028,-0.00000080,0
 .00000312,-0.00000162,0.00001545,-0.00000768,-0.00000656,-0.00000427,0
 .00001082,0.00000257,0.00000620,0.00004034,0.00000269,-0.00001373,0.00
 000122,0.00001064,0.00000374,0.00000253,-0.00000089,0.00000271,-0.0000
 0618,-0.00001019,-0.00000255,-0.00000076,0.00000091,0.00000463,0.00000
 163,0.00000040,-0.00000107,0.00000265,0.00000024,-0.00000030,-0.000000
 03,-0.00000003,0.00000008,-0.00000001,-0.00000007,-0.00000017,0.000000
 12,0.00000008,0.00000042,-0.00000013,-0.00000024,-0.00000026,0.0000002
 2,0.00000010,-0.00000064,0.00000046,0.00000035,-0.00000063,0.00000042,
 -0.00000002,-0.00000188,-0.00001082,0.00000500,-0.00000958,-0.00006722
 ,-0.00000303,0.00000003,-0.00000002,-0.00000055,-0.00000244,0.00000485
 ,-0.00000321,-0.00000109,-0.00000435,-0.00000101,-0.00000017,0.0000012
 8,0.00000013,0.00000072,0.00000109,-0.00000032,0.00000052,0.00000143,0
 .00000128,-0.00000822,-0.00000211,-0.00000042,0.00000304,-0.00000073,-
 0.00000029,0.00000289,0.00000266,0.00000117,-0.00000032,-0.00000033,-0
 .00000022,0.00003368,0.00011455,0.00026645,0.00046601,-0.00008424,-0.0
 0027912,-0.00067398,0.00018904,-0.00064050,0.00618549,0.00477741,-0.01
 460349,-0.03402181,-0.07331983,0.07401256,-0.00079767,0.00046346,0.000
 30432,0.00289609,-0.00105355,-0.00070486,0.03442468,0.07588072,-0.0000
 0089,0.00000014,0.00000041,-0.00000003,0.00000067,-0.00000227,-0.00000
 403,-0.00000019,-0.00000081,-0.00001163,-0.00003516,0.00000322,0.00002
 722,-0.00000059,-0.00000139,-0.00000696,-0.00000427,0.00000127,-0.0000
 0459,0.00001032,0.00000289,0.00000561,0.00000300,-0.00001277,-0.000001
 12,-0.00000112,0.00000282,-0.00000396,0.00000024,0.00001258,0.00000240
 ,-0.00000016,-0.00000070,-0.00000072,0.00000026,-0.00000062,0.00000138
 ,0.00000225,0.00000154,0.00000020,0.00000021,-0.00000010,0.00000043,-0
 .00000066,0.00000053,0.00000012,-0.00000006,-0.00000017,0.00000056,0.0
 0000032,0.00000025,0.00000010,-0.00000020,0.00000143,0.00000036,-0.000
 00045,-0.00000019,0.00000078,-0.00000142,0.00000064,0.00000691,0.00004
 819,-0.00000262,-0.00001162,-0.00001902,-0.00000764,0.00000058,0.00000
 025,-0.00000065,-0.00000126,-0.00000726,-0.00000663,0.,-0.00000424,-0.
 00000308,-0.00000047,0.00000122,0.00000018,0.00000003,0.00000084,0.000
 00030,0.00000044,0.00000151,0.00000172,-0.00000071,-0.00000483,-0.0000
 0357,-0.00000115,0.00000228,0.00000161,0.00000164,0.00000339,0.0000022
 4,-0.00000166,-0.00000018,-0.00000102,-0.00016469,-0.00054473,-0.00002
 096,-0.00101762,0.00035712,0.00050092,0.00104078,0.00130033,-0.0000151
 4,0.00131379,0.00070930,-0.00362823,0.09287012,0.07220779,-0.25423590,
 0.00018139,-0.00032081,0.00067757,0.00098285,-0.00054534,0.00134867,-0
 .10290174,-0.08037330,0.27196263,0.00000170,-0.00000078,-0.00000070,-0
 .00000466,-0.00000038,0.00000271,0.00004322,-0.00000643,-0.00000270,0.
 00006448,0.00024033,-0.00000551,-0.00010174,-0.00003910,-0.00000404,0.
 00002659,0.00007649,0.00000506,0.00004899,0.00007026,0.00000903,-0.000
 05741,-0.00001077,-0.00000545,0.00001549,0.00001198,0.00000289,0.00001
 616,-0.00000977,0.00000099,-0.00000710,-0.00000347,-0.00000241,0.00001
 524,0.00000337,0.00000190,-0.00000732,0.00000256,-0.00000018,-0.000002
 16,0.00000046,0.00000008,-0.00000117,0.00000149,-0.00000055,-0.0000009
 2,0.00000116,0.00000066,-0.00000154,-0.00000120,0.00000387,-0.00000143
 ,-0.00000004,-0.00000544,-0.00000737,0.00000710,0.00000228,-0.00000842
 ,0.00000804,-0.00000125,-0.00003805,-0.00037407,0.00000922,-0.00001348
 ,-0.00013672,-0.00001083,-0.00000131,-0.00000160,-0.00000024,-0.000007
 95,0.00000524,0.00000088,-0.00000091,-0.00000418,-0.00000002,-0.000000
 07,0.00000136,-0.00000010,0.00000087,0.00000120,-0.00000086,0.00000033
 ,0.00000123,0.00000087,-0.00001704,-0.00000138,-0.00000095,0.00000633,
 -0.00000377,-0.00000123,0.00000430,0.00000414,0.00000173,0.00000140,0.
 00000061,0.00000016,-0.00137548,0.00374681,0.00043853,0.00138726,0.000
 06046,-0.00018094,-0.00557142,-0.00237256,0.00089022,0.00444814,0.0321
 0912,0.00131488,-0.05259164,-0.03837707,-0.00205134,0.00126487,-0.0007
 2678,-0.00046872,0.00123518,-0.00081888,-0.00001929,-0.00242039,-0.011
 93516,-0.00190055,0.05637857,-0.00000193,0.00000136,0.00000038,0.00000
 352,-0.00000145,-0.00000170,-0.00003747,0.00000851,0.00000266,-0.00003
 907,-0.00016976,0.00000381,0.00004084,0.00005430,0.00000335,-0.0000091
 0,-0.00008272,-0.00000474,-0.00005980,-0.00013298,-0.00001638,0.000075
 07,0.00000282,0.00000444,-0.00002097,-0.00001602,-0.00000052,-0.000019
 45,0.00001495,-0.00000318,0.00001037,0.00000550,0.00000234,-0.00002307
 ,-0.00000634,0.00000002,0.00000925,-0.00000713,-0.00000335,0.00000264,
 0.00000014,-0.00000007,0.00000113,-0.00000144,0.00000080,0.00000098,-0
 .00000122,-0.00000094,0.00000075,0.00000068,-0.00000272,0.00000041,0.0
 0000053,0.00000394,0.00000683,-0.00000640,-0.00000232,0.00000758,-0.00
 000703,0.00000125,0.00001339,0.00030927,-0.00000449,0.00005045,0.00027
 377,0.00002587,0.00000090,0.00000148,0.00000026,0.00001203,0.00000304,
 0.00000052,0.00000247,0.00001151,0.00000103,0.00000027,-0.00000341,0.0
 0000033,-0.00000224,-0.00000311,0.00000176,-0.00000120,-0.00000342,-0.
 00000222,0.00002993,0.00000374,0.00000202,-0.00001170,0.00000501,0.000
 00204,-0.00000864,-0.00000810,-0.00000378,-0.00000055,0.00000028,-0.00
 000012,0.00134264,-0.00244645,-0.00035405,0.00022528,-0.00119783,-0.00
 012982,0.00170088,0.00303948,-0.00015192,-0.00353164,-0.01337471,-0.00
 028106,-0.03657290,-0.31566178,-0.01250318,-0.00006992,0.00050760,0.00
 041156,-0.00015031,0.00057367,-0.00030751,-0.00122314,-0.00839195,-0.0
 0050314,0.03909770,0.34146191,-0.00000037,0.00000023,-0.00000013,0.000
 00109,0.00000007,0.00000034,-0.00000932,0.00000182,0.00000104,-0.00001
 307,-0.00004943,0.00000322,0.00001820,0.00000963,-0.00000086,-0.000004
 74,-0.00001762,-0.00000116,-0.00001092,-0.00002027,0.00000910,0.000014
 00,0.00000187,-0.00000499,-0.00000376,-0.00000311,0.00000158,-0.000003
 91,0.00000371,0.00000231,0.00000178,0.00000113,0.00000016,-0.00000389,
 -0.00000102,0.00000013,0.00000177,-0.00000096,-0.00000035,0.00000050,-
 0.00000007,0.00000003,0.00000029,-0.00000033,0.00000012,0.00000020,-0.
 00000031,-0.00000018,0.00000035,0.00000037,-0.00000107,0.00000024,0.00
 000016,0.00000124,0.00000148,-0.00000147,-0.00000055,0.00000192,-0.000
 00197,0.00000022,0.00000763,0.00008131,-0.00000179,0.00000514,0.000040
 64,-0.00000173,0.00000020,0.00000034,-0.00000011,0.00000198,0.00000146
 ,-0.00000250,0.00000031,0.00000162,-0.00000037,0.00000008,-0.00000051,
 0.00000010,-0.00000036,-0.00000044,0.00000036,-0.00000014,-0.00000045,
 -0.00000019,0.00000489,0.00000033,-0.00000018,-0.00000198,0.00000097,0
 .00000053,-0.00000130,-0.00000111,-0.00000043,-0.00000011,-0.00000004,
 -0.00000024,0.00032416,-0.00077022,-0.00002350,-0.00016659,-0.00012177
 ,0.00023616,0.00111927,0.00053462,0.00066185,-0.00115370,-0.00595468,-
 0.00138123,-0.00191965,-0.01224041,-0.04956765,0.00007200,0.00037031,0
 .00014676,-0.00046862,-0.00005853,0.00007811,0.00315840,0.02849239,0.0
 0287415,0.00113382,0.01406236,0.04741259,0.00000077,-0.00000029,0.0000
 0020,-0.00000071,-0.00000003,-0.00000109,0.00000908,-0.00000024,-0.000
 00062,0.00000946,0.00005578,0.00000117,-0.00002374,-0.00000914,-0.0000
 0578,0.00000561,0.00001818,0.00000327,0.00000981,0.00002564,0.00000291
 ,-0.00001494,-0.00000341,0.00000947,0.00000399,0.00000341,-0.00000128,
 0.00000315,-0.00000400,-0.00001206,-0.00000176,0.00000019,0.00000605,0
 .00000390,0.00000118,-0.00000213,-0.00000163,0.00000061,0.00000075,-0.
 00000031,0.00000002,-0.00000014,-0.00000020,0.00000025,-0.00000026,-0.
 00000047,0.00000073,0.00000060,0.00000010,-0.00000040,0.00000216,-0.00
 000066,-0.00000073,-0.00000137,-0.00000148,0.00000227,0.00000115,-0.00
 000194,0.00000190,-0.00000023,0.00000031,-0.00008002,0.00000400,0.0000
 0248,-0.00004282,-0.00000988,-0.00000046,-0.00000033,-0.00000064,-0.00
 000100,0.00001430,-0.00000253,-0.00000018,-0.00000002,-0.00000169,0.00
 000027,-0.00000006,0.00000045,-0.00000021,0.,0.00000048,0.00000010,0.0
 0000035,0.00000081,-0.00000424,-0.00000090,-0.00000074,0.00000158,-0.0
 0000082,0.00000008,0.00000121,0.00000115,0.00000082,0.00000096,-0.0000
 0022,-0.00000047,0.00015701,0.00066135,0.00026435,0.00126085,0.0001631
 0,0.00019878,-0.00033472,-0.00224021,-0.00022252,-0.01938340,-0.005772
 41,-0.02194515,-0.16226624,-0.03477542,-0.12968307,-0.00459686,0.00338
 774,0.00165240,0.00120328,-0.00068839,0.00015753,0.00929066,0.00342746
 ,0.00959772,-0.00272013,-0.00085221,-0.00210729,0.17739069,-0.00000002
 ,-0.00000040,-0.00000031,0.00000017,0.00000028,0.00000047,0.00000285,-
 0.00000234,0.00000030,-0.00000137,0.00000161,0.00000020,0.00001800,-0.
 00000820,0.00000541,-0.00000466,0.00001065,-0.00000164,0.00000393,0.00
 003858,0.00000797,-0.00000930,0.00000319,-0.00000967,0.00000309,0.0000
 0294,0.00000101,-0.00000082,-0.00000807,0.00000639,-0.00000320,-0.0000
 0024,-0.00000281,0.00000504,0.00000183,0.00000116,-0.00000021,0.000003
 21,-0.00000047,-0.00000028,0.,0.00000004,-0.00000012,0.00000013,-0.000
 00002,0.00000008,-0.00000005,-0.00000003,-0.00000034,0.00000005,-0.000
 00035,0.00000009,0.00000019,0.00000025,-0.00000045,0.00000022,0.000000
 03,-0.00000086,0.00000037,-0.00000025,-0.00000321,-0.00000900,-0.00000
 336,-0.00001148,-0.00006693,-0.00001137,0.00000014,-0.00000005,0.00000
 046,-0.00000127,0.00000817,0.00000313,-0.00000135,-0.00000590,0.000000
 98,-0.00000038,0.00000181,-0.00000036,0.00000120,0.00000171,-0.0000010
 4,0.00000047,0.00000169,0.00000064,-0.00000912,-0.00000134,-0.00000066
 ,0.00000340,-0.00000126,-0.00000067,0.00000325,0.00000274,0.00000107,-
 0.00000074,-0.00000019,0.00000042,-0.00006561,0.00007877,-0.00024498,0
 .00042114,-0.00006688,0.00011776,-0.00032149,0.00017275,0.00080247,0.0
 1026711,0.00284290,0.01228827,-0.03606423,-0.05829654,-0.04029803,0.00
 289123,-0.00105290,-0.00057085,-0.00081733,0.00044961,-0.00007413,0.00
 761720,0.00145209,0.00771753,-0.02062701,-0.00475630,-0.02436063,0.036
 70647,0.05920108,0.00000074,0.00000006,-0.00000005,-0.00000030,-0.0000
 0092,-0.00000026,0.00000134,0.00000051,0.00000007,0.00000956,0.0000193
 6,0.00000143,-0.00002098,0.00000322,-0.00000172,0.00000539,-0.00000053
 ,0.00000092,0.00000324,-0.00001374,-0.00000454,-0.00000418,-0.00000411
 ,0.00000774,0.00000078,0.00000005,-0.00000024,0.00000351,0.00000206,-0
 .00001225,-0.00000154,0.00000184,0.00000508,0.00000040,-0.00000008,-0.
 00000088,-0.00000152,-0.00000226,-0.00000051,-0.00000005,-0.00000017,-
 0.00000004,-0.00000013,0.00000010,-0.00000012,-0.00000021,0.00000030,0
 .00000036,-0.00000016,0.00000018,0.00000063,-0.00000025,-0.00000002,-0
 .00000014,0.,0.00000044,0.00000041,-0.00000004,0.00000015,-0.00000021,
 -0.00000677,-0.00002262,-0.00000057,0.00000897,0.00002883,-0.00000598,
 -0.00000059,-0.00000025,-0.00000025,0.00000115,0.00001245,-0.00000017,
 0.00000021,0.00000498,-0.00000015,0.00000077,-0.00000167,0.00000038,-0
 .00000052,-0.00000119,0.00000064,-0.00000024,-0.00000133,-0.00000062,0
 .00000103,0.00000377,0.00000179,0.00000053,-0.00000199,-0.00000057,-0.
 00000154,-0.00000282,-0.00000141,0.00000212,0.00000082,-0.00000003,0.0
 0011279,0.00036959,-0.00012072,0.00082937,-0.00054548,0.00012132,-0.00
 103566,-0.00059996,0.00028700,0.00533723,0.00202189,0.00567720,-0.1308
 9209,-0.03879301,-0.19702381,0.00139269,-0.00090027,0.00112067,-0.0004
 4658,0.00052151,0.00073312,-0.01823579,-0.00647184,-0.01945309,0.00084
 351,-0.00025353,-0.00044090,0.14209378,0.04462566,0.20911049\\0.000000
 36,0.00000059,0.00000282,0.00000028,0.00000034,0.00000283,-0.00000005,
 0.00000011,0.00000389,-0.00000080,0.00000107,0.00000459,0.00000370,-0.
 00000729,-0.00000214,-0.00000022,0.00000396,0.00000340,-0.00000300,0.0
 0000274,0.00000728,0.00000180,0.00000219,0.00000094,-0.00000164,-0.000
 00277,0.00000165,0.00000002,-0.00000084,-0.00000213,0.00000003,-0.0000
 0120,-0.00000287,-0.00000473,-0.00000167,0.00000152,0.00000306,-0.0000
 0028,0.00000064,0.00000027,0.00000057,0.00000243,-0.00000011,0.0000014
 4,0.00000399,0.00000047,-0.00000067,0.00000378,-0.00000042,0.00000156,
 0.00000087,0.00000026,-0.00000075,0.00000083,0.00000199,-0.00000007,0.
 00000206,-0.00000137,0.00000038,0.00000223,0.00000069,0.00000220,-0.00
 000446,0.00000021,-0.00000195,-0.00000247,0.00000047,-0.00000077,0.000
 00330,-0.00000035,0.00000008,-0.00000189,-0.00000313,-0.00000045,-0.00
 000159,0.00000307,0.00000005,0.00000547,-0.00000154,0.00000074,0.00000
 498,0.00000323,-0.00000100,0.00000633,0.00000620,0.00000334,0.00000161
 ,-0.00000141,0.00000090,-0.00000038,-0.00000044,-0.00000614,-0.0000003
 3,-0.00000039,-0.00000014,-0.00000182,-0.00000111,-0.00000159,-0.00000
 110,-0.00000059,0.00000136,-0.00000018,0.00000011,0.,-0.00000477,-0.00
 000041,0.00000052,-0.00000691,-0.00000129,0.00000096,-0.00000627,-0.00
 000122,0.00000116,-0.00000398,0.00000012,-0.00000049,-0.00000441,-0.00
 000093,0.00000161,-0.00000607,-0.00000079,0.00000074,-0.00000746,-0.00
 000040,-0.00000057,-0.00000624\\\@


 NEVER LOSE YOUR IGNORANCE, IT CAN'T BE REPLACED.
   -- ANDY CAPP
 Job cpu time:       0 days  8 hours 23 minutes 13.2 seconds.
 File lengths (MBytes):  RWF=   1326 Int=      0 D2E=      0 Chk=     33 Scr=      1
 Normal termination of Gaussian 09 at Tue Feb 19 16:01:26 2019.
WARNING: pbs_rusage is deprecated and values produced may not be accurate


=============================================================================
                                     Resource usage:
                                       CPU time:              50:58:06
   JobId:    5874938.r-man2            Elapsed time:          06:24:32
   Project:             q95            Requested time:        50:00:00
   Service Units:     51.27 
                                       Max physical memory:     1573MB
                                       Max virtual memory:      3296MB
                                       Requested memory:           0MB

                                       Number of cpus:               8

                                       Max jobfs disk use:       1.3GB
                                       Requested jobfs:         24.0GB
=============================================================================

