 Entering Gaussian System, Link 0=/apps/gaussian/g09e01/g09/g09
 AtFile(1): /home/507/hio507/Basis/6-31pGd.gbs
 Initial command:
 /apps/gaussian/g09e01/g09/l1.exe "/jobfs/local/5874942.r-man2/Gau-52286.inp" -scrdir="/jobfs/local/5874942.r-man2/"
 Entering Link 1 = /apps/gaussian/g09e01/g09/l1.exe PID=     52287.
  
 Copyright (c) 1988,1990,1992,1993,1995,1998,2003,2009,2015,
            Gaussian, Inc.  All Rights Reserved.
  
 This is part of the Gaussian(R) 09 program.  It is based on
 the Gaussian(R) 03 system (copyright 2003, Gaussian, Inc.),
 the Gaussian(R) 98 system (copyright 1998, Gaussian, Inc.),
 the Gaussian(R) 94 system (copyright 1995, Gaussian, Inc.),
 the Gaussian 92(TM) system (copyright 1992, Gaussian, Inc.),
 the Gaussian 90(TM) system (copyright 1990, Gaussian, Inc.),
 the Gaussian 88(TM) system (copyright 1988, Gaussian, Inc.),
 the Gaussian 86(TM) system (copyright 1986, Carnegie Mellon
 University), and the Gaussian 82(TM) system (copyright 1983,
 Carnegie Mellon University). Gaussian is a federally registered
 trademark of Gaussian, Inc.
  
 This software contains proprietary and confidential information,
 including trade secrets, belonging to Gaussian, Inc.
  
 This software is provided under written license and may be
 used, copied, transmitted, or stored only in accord with that
 written license.
  
 The following legend is applicable only to US Government
 contracts under FAR:
  
                    RESTRICTED RIGHTS LEGEND
  
 Use, reproduction and disclosure by the US Government is
 subject to restrictions as set forth in subparagraphs (a)
 and (c) of the Commercial Computer Software - Restricted
 Rights clause in FAR 52.227-19.
  
 Gaussian, Inc.
 340 Quinnipiac St., Bldg. 40, Wallingford CT 06492
  
  
 ---------------------------------------------------------------
 Warning -- This program may not be used in any manner that
 competes with the business of Gaussian, Inc. or will provide
 assistance to any competitor of Gaussian, Inc.  The licensee
 of this program is prohibited from giving any competitor of
 Gaussian, Inc. access to this program.  By using this program,
 the user acknowledges that Gaussian, Inc. is engaged in the
 business of creating and licensing software in the field of
 computational chemistry and represents and warrants to the
 licensee that it is not a competitor of Gaussian, Inc. and that
 it will not use this program in any manner prohibited above.
 ---------------------------------------------------------------
  

 Cite this work as:
 Gaussian 09, Revision E.01,
 M. J. Frisch, G. W. Trucks, H. B. Schlegel, G. E. Scuseria, 
 M. A. Robb, J. R. Cheeseman, G. Scalmani, V. Barone, B. Mennucci, 
 G. A. Petersson, H. Nakatsuji, M. Caricato, X. Li, H. P. Hratchian, 
 A. F. Izmaylov, J. Bloino, G. Zheng, J. L. Sonnenberg, M. Hada, 
 M. Ehara, K. Toyota, R. Fukuda, J. Hasegawa, M. Ishida, T. Nakajima, 
 Y. Honda, O. Kitao, H. Nakai, T. Vreven, J. A. Montgomery, Jr., 
 J. E. Peralta, F. Ogliaro, M. Bearpark, J. J. Heyd, E. Brothers, 
 K. N. Kudin, V. N. Staroverov, T. Keith, R. Kobayashi, J. Normand, 
 K. Raghavachari, A. Rendell, J. C. Burant, S. S. Iyengar, J. Tomasi, 
 M. Cossi, N. Rega, J. M. Millam, M. Klene, J. E. Knox, J. B. Cross, 
 V. Bakken, C. Adamo, J. Jaramillo, R. Gomperts, R. E. Stratmann, 
 O. Yazyev, A. J. Austin, R. Cammi, C. Pomelli, J. W. Ochterski, 
 R. L. Martin, K. Morokuma, V. G. Zakrzewski, G. A. Voth, 
 P. Salvador, J. J. Dannenberg, S. Dapprich, A. D. Daniels, 
 O. Farkas, J. B. Foresman, J. V. Ortiz, J. Cioslowski, 
 and D. J. Fox, Gaussian, Inc., Wallingford CT, 2013.
 
 ******************************************
 Gaussian 09:  ES64L-G09RevE.01 30-Nov-2015
                19-Feb-2019 
 ******************************************
 %chk=3TMF4Nitro_EtO.M062X_6-31pGd_opt_Pentadecane.chk
 %mem=196608000
 %nproc=8
 Will use up to    8 processors via shared memory.
 ----------------------------------------------------------------------
 # M062X/Gen 6D SCF=Tight INT(grid=ultrafine) OPT IOP(2/17=4) SCRF=(SMD
 ,Solvent=n-Pentadecane) maxdisk=3221225472
 ----------------------------------------------------------------------
 1/14=-1,18=20,19=15,26=4,38=1/1,3;
 2/9=110,12=2,17=4,18=5,40=1/2;
 3/5=7,8=2,11=2,16=1,25=1,30=1,70=32201,71=1,72=151,74=-55,75=-5/1,2,3;
 4//1;
 5/5=2,32=2,38=5,53=151/2;
 6/7=2,8=2,9=2,10=2,28=1/1;
 7//1,2,3,16;
 1/14=-1,18=20,19=15,26=4/3(2);
 2/9=110,17=4/2;
 99//99;
 2/9=110,17=4/2;
 3/5=7,6=1,8=2,11=2,16=1,25=1,30=1,70=32205,71=1,72=151,74=-55,75=-5,82=7/1,2,3;
 4/5=5,16=3,69=1/1;
 5/5=2,32=2,38=5,53=151/2;
 7//1,2,3,16;
 1/14=-1,18=20,19=15,26=4/3(-5);
 2/9=110,17=4/2;
 6/7=2,8=2,9=2,10=2,19=2,28=1/1;
 99/9=1/99;
 --------------------------------------------
 3TMF4Nitro_EtO.M062X_6-31pGd_opt_Pentadecane
 --------------------------------------------
 Symbolic Z-matrix:
 Charge = -1 Multiplicity = 1
 C                    -2.21689   2.63869   0.02188 
 C                    -0.91646   1.84085   0.02624 
 C                     0.30367   2.76794   0.02121 
 N                     1.54148   2.00543   0.02195 
 C                     2.75912   2.62152   0.02409 
 O                     2.80221   3.84077   0.03107 
 N                     3.90588   1.86604   0.0236 
 C                     5.27406   2.3339    0.03548 
 C                     5.65976   3.69417   0.0094 
 C                     6.2936    1.37511   0.07636 
 C                     7.63467   1.73964   0.09295 
 C                     8.03784   3.08848   0.06869 
 C                     7.0184    4.09476   0.02492 
 H                    -3.08098   1.94139   0.0273 
 H                    -2.27726   3.27282  -0.88824 
 H                    -2.27615   3.28593   0.92276 
 H                    -0.89206   1.18954  -0.87445 
 H                    -0.8903    1.19943   0.93408 
 H                     0.2721    3.41592   0.92491 
 H                     0.27082   3.4101   -0.88661 
 H                     1.48586   0.8667    0.02284 
 H                     3.75831   0.72803   0.01613 
 H                     4.92518   4.46944  -0.02553 
 H                     6.06064   0.31989   0.09884 
 C                     7.33079   5.58695  -0.00596 
 F                     6.18875   6.36927  -0.0474 
 F                     8.07469   5.88838  -1.13282 
 F                     8.03085   5.9445    1.1325 
 N                     9.45043   3.37409   0.08925 
 O                     10.24144   2.47955   0.12647 
 O                     9.86356   4.49188   0.07106 
 H                     8.3684    0.94414   0.12618 
 O                     1.42702  -1.18983  -0.22298 
 O                     3.64969  -1.33133  -0.24484 
 C                     2.56799  -1.90212  -0.31839 
 C                     2.48206  -3.39186  -0.51712 
 C                     3.84954  -4.06636  -0.61897 
 H                     1.91467  -3.5925   -1.45094 
 H                     1.92627  -3.83301   0.33768 
 H                     4.41631  -3.65984  -1.48379 
 H                     3.71426  -5.15876  -0.76572 
 H                     4.43184  -3.90231   0.31274 
 
 Add virtual bond connecting atoms O33        and H21        Dist= 3.92D+00.
 Add virtual bond connecting atoms O34        and H22        Dist= 3.93D+00.

 GradGradGradGradGradGradGradGradGradGradGradGradGradGradGradGradGradGrad
 Berny optimization.
 Initialization pass.
                           ----------------------------
                           !    Initial Parameters    !
                           ! (Angstroms and Degrees)  !
 --------------------------                            --------------------------
 ! Name  Definition              Value          Derivative Info.                !
 --------------------------------------------------------------------------------
 ! R1    R(1,2)                  1.5257         estimate D2E/DX2                !
 ! R2    R(1,14)                 1.1104         estimate D2E/DX2                !
 ! R3    R(1,15)                 1.1109         estimate D2E/DX2                !
 ! R4    R(1,16)                 1.1109         estimate D2E/DX2                !
 ! R5    R(2,3)                  1.5324         estimate D2E/DX2                !
 ! R6    R(2,17)                 1.1118         estimate D2E/DX2                !
 ! R7    R(2,18)                 1.1119         estimate D2E/DX2                !
 ! R8    R(3,4)                  1.4538         estimate D2E/DX2                !
 ! R9    R(3,19)                 1.1125         estimate D2E/DX2                !
 ! R10   R(3,20)                 1.1125         estimate D2E/DX2                !
 ! R11   R(4,5)                  1.3646         estimate D2E/DX2                !
 ! R12   R(4,21)                 1.1401         estimate D2E/DX2                !
 ! R13   R(5,6)                  1.22           estimate D2E/DX2                !
 ! R14   R(5,7)                  1.3732         estimate D2E/DX2                !
 ! R15   R(7,8)                  1.446          estimate D2E/DX2                !
 ! R16   R(7,22)                 1.1476         estimate D2E/DX2                !
 ! R17   R(8,9)                  1.4141         estimate D2E/DX2                !
 ! R18   R(8,10)                 1.4001         estimate D2E/DX2                !
 ! R19   R(9,13)                 1.4166         estimate D2E/DX2                !
 ! R20   R(9,23)                 1.0686         estimate D2E/DX2                !
 ! R21   R(10,11)                1.3898         estimate D2E/DX2                !
 ! R22   R(10,24)                1.0809         estimate D2E/DX2                !
 ! R23   R(11,12)                1.408          estimate D2E/DX2                !
 ! R24   R(11,32)                1.0827         estimate D2E/DX2                !
 ! R25   R(12,13)                1.4331         estimate D2E/DX2                !
 ! R26   R(12,29)                1.4413         estimate D2E/DX2                !
 ! R27   R(13,25)                1.5249         estimate D2E/DX2                !
 ! R28   R(21,33)                2.072          estimate D2E/DX2                !
 ! R29   R(22,34)                2.0787         estimate D2E/DX2                !
 ! R30   R(25,26)                1.3849         estimate D2E/DX2                !
 ! R31   R(25,27)                1.3835         estimate D2E/DX2                !
 ! R32   R(25,28)                1.3835         estimate D2E/DX2                !
 ! R33   R(29,30)                1.1947         estimate D2E/DX2                !
 ! R34   R(29,31)                1.1918         estimate D2E/DX2                !
 ! R35   R(33,35)                1.3484         estimate D2E/DX2                !
 ! R36   R(34,35)                1.2253         estimate D2E/DX2                !
 ! R37   R(35,36)                1.5054         estimate D2E/DX2                !
 ! R38   R(36,37)                1.5282         estimate D2E/DX2                !
 ! R39   R(36,38)                1.1109         estimate D2E/DX2                !
 ! R40   R(36,39)                1.1109         estimate D2E/DX2                !
 ! R41   R(37,40)                1.111          estimate D2E/DX2                !
 ! R42   R(37,41)                1.1105         estimate D2E/DX2                !
 ! R43   R(37,42)                1.1109         estimate D2E/DX2                !
 ! A1    A(2,1,14)             109.5662         estimate D2E/DX2                !
 ! A2    A(2,1,15)             110.3145         estimate D2E/DX2                !
 ! A3    A(2,1,16)             110.3554         estimate D2E/DX2                !
 ! A4    A(14,1,15)            108.6741         estimate D2E/DX2                !
 ! A5    A(14,1,16)            108.6886         estimate D2E/DX2                !
 ! A6    A(15,1,16)            109.2029         estimate D2E/DX2                !
 ! A7    A(1,2,3)              111.2406         estimate D2E/DX2                !
 ! A8    A(1,2,17)             108.8291         estimate D2E/DX2                !
 ! A9    A(1,2,18)             108.9087         estimate D2E/DX2                !
 ! A10   A(3,2,17)             109.5293         estimate D2E/DX2                !
 ! A11   A(3,2,18)             109.4482         estimate D2E/DX2                !
 ! A12   A(17,2,18)            108.8445         estimate D2E/DX2                !
 ! A13   A(2,3,4)              111.1374         estimate D2E/DX2                !
 ! A14   A(2,3,19)             109.0949         estimate D2E/DX2                !
 ! A15   A(2,3,20)             109.1713         estimate D2E/DX2                !
 ! A16   A(4,3,19)             109.2233         estimate D2E/DX2                !
 ! A17   A(4,3,20)             109.1663         estimate D2E/DX2                !
 ! A18   A(19,3,20)            109.0167         estimate D2E/DX2                !
 ! A19   A(3,4,5)              121.5282         estimate D2E/DX2                !
 ! A20   A(3,4,21)             118.8374         estimate D2E/DX2                !
 ! A21   A(5,4,21)             119.6343         estimate D2E/DX2                !
 ! A22   A(4,5,6)              118.8622         estimate D2E/DX2                !
 ! A23   A(4,5,7)              119.7852         estimate D2E/DX2                !
 ! A24   A(6,5,7)              121.3522         estimate D2E/DX2                !
 ! A25   A(5,7,8)              127.7431         estimate D2E/DX2                !
 ! A26   A(5,7,22)             115.9877         estimate D2E/DX2                !
 ! A27   A(8,7,22)             116.2689         estimate D2E/DX2                !
 ! A28   A(7,8,9)              124.6904         estimate D2E/DX2                !
 ! A29   A(7,8,10)             117.8819         estimate D2E/DX2                !
 ! A30   A(9,8,10)             117.4277         estimate D2E/DX2                !
 ! A31   A(8,9,13)             122.2365         estimate D2E/DX2                !
 ! A32   A(8,9,23)             120.7294         estimate D2E/DX2                !
 ! A33   A(13,9,23)            117.034          estimate D2E/DX2                !
 ! A34   A(8,10,11)            121.5581         estimate D2E/DX2                !
 ! A35   A(8,10,24)            120.8102         estimate D2E/DX2                !
 ! A36   A(11,10,24)           117.6315         estimate D2E/DX2                !
 ! A37   A(10,11,12)           121.8265         estimate D2E/DX2                !
 ! A38   A(10,11,32)           117.4877         estimate D2E/DX2                !
 ! A39   A(12,11,32)           120.6858         estimate D2E/DX2                !
 ! A40   A(11,12,13)           118.0017         estimate D2E/DX2                !
 ! A41   A(11,12,29)           118.0483         estimate D2E/DX2                !
 ! A42   A(13,12,29)           123.9499         estimate D2E/DX2                !
 ! A43   A(9,13,12)            118.9495         estimate D2E/DX2                !
 ! A44   A(9,13,25)            118.2295         estimate D2E/DX2                !
 ! A45   A(12,13,25)           122.821          estimate D2E/DX2                !
 ! A46   A(13,25,26)           112.6099         estimate D2E/DX2                !
 ! A47   A(13,25,27)           109.8683         estimate D2E/DX2                !
 ! A48   A(13,25,28)           109.8712         estimate D2E/DX2                !
 ! A49   A(26,25,27)           107.2146         estimate D2E/DX2                !
 ! A50   A(26,25,28)           107.2118         estimate D2E/DX2                !
 ! A51   A(27,25,28)           109.9903         estimate D2E/DX2                !
 ! A52   A(12,29,30)           120.0647         estimate D2E/DX2                !
 ! A53   A(12,29,31)           121.6922         estimate D2E/DX2                !
 ! A54   A(30,29,31)           118.2431         estimate D2E/DX2                !
 ! A55   A(21,33,35)           120.5743         estimate D2E/DX2                !
 ! A56   A(22,34,35)           121.0101         estimate D2E/DX2                !
 ! A57   A(33,35,34)           119.7802         estimate D2E/DX2                !
 ! A58   A(33,35,36)           118.9329         estimate D2E/DX2                !
 ! A59   A(34,35,36)           121.2868         estimate D2E/DX2                !
 ! A60   A(35,36,37)           113.2352         estimate D2E/DX2                !
 ! A61   A(35,36,38)           108.5929         estimate D2E/DX2                !
 ! A62   A(35,36,39)           108.6598         estimate D2E/DX2                !
 ! A63   A(37,36,38)           108.7406         estimate D2E/DX2                !
 ! A64   A(37,36,39)           108.8863         estimate D2E/DX2                !
 ! A65   A(38,36,39)           108.6346         estimate D2E/DX2                !
 ! A66   A(36,37,40)           110.2958         estimate D2E/DX2                !
 ! A67   A(36,37,41)           109.5108         estimate D2E/DX2                !
 ! A68   A(36,37,42)           110.3636         estimate D2E/DX2                !
 ! A69   A(40,37,41)           108.6154         estimate D2E/DX2                !
 ! A70   A(40,37,42)           109.3546         estimate D2E/DX2                !
 ! A71   A(41,37,42)           108.6605         estimate D2E/DX2                !
 ! A72   L(4,21,33,2,-1)       181.0164         estimate D2E/DX2                !
 ! A73   L(7,22,34,1,-1)       184.257          estimate D2E/DX2                !
 ! A74   L(4,21,33,2,-2)       172.6876         estimate D2E/DX2                !
 ! A75   L(7,22,34,1,-2)       172.929          estimate D2E/DX2                !
 ! D1    D(14,1,2,3)          -179.9104         estimate D2E/DX2                !
 ! D2    D(14,1,2,17)           59.3276         estimate D2E/DX2                !
 ! D3    D(14,1,2,18)          -59.197          estimate D2E/DX2                !
 ! D4    D(15,1,2,3)            60.4911         estimate D2E/DX2                !
 ! D5    D(15,1,2,17)          -60.2709         estimate D2E/DX2                !
 ! D6    D(15,1,2,18)         -178.7956         estimate D2E/DX2                !
 ! D7    D(16,1,2,3)           -60.2686         estimate D2E/DX2                !
 ! D8    D(16,1,2,17)          178.9694         estimate D2E/DX2                !
 ! D9    D(16,1,2,18)           60.4448         estimate D2E/DX2                !
 ! D10   D(1,2,3,4)           -179.8552         estimate D2E/DX2                !
 ! D11   D(1,2,3,19)            59.6542         estimate D2E/DX2                !
 ! D12   D(1,2,3,20)           -59.3858         estimate D2E/DX2                !
 ! D13   D(17,2,3,4)           -59.5058         estimate D2E/DX2                !
 ! D14   D(17,2,3,19)         -179.9963         estimate D2E/DX2                !
 ! D15   D(17,2,3,20)           60.9637         estimate D2E/DX2                !
 ! D16   D(18,2,3,4)            59.7493         estimate D2E/DX2                !
 ! D17   D(18,2,3,19)          -60.7413         estimate D2E/DX2                !
 ! D18   D(18,2,3,20)         -179.7813         estimate D2E/DX2                !
 ! D19   D(2,3,4,5)           -179.6996         estimate D2E/DX2                !
 ! D20   D(2,3,4,21)             0.1779         estimate D2E/DX2                !
 ! D21   D(19,3,4,5)           -59.2849         estimate D2E/DX2                !
 ! D22   D(19,3,4,21)          120.5926         estimate D2E/DX2                !
 ! D23   D(20,3,4,5)            59.8281         estimate D2E/DX2                !
 ! D24   D(20,3,4,21)         -120.2945         estimate D2E/DX2                !
 ! D25   D(3,4,5,6)              0.3039         estimate D2E/DX2                !
 ! D26   D(3,4,5,7)           -179.9459         estimate D2E/DX2                !
 ! D27   D(21,4,5,6)          -179.5727         estimate D2E/DX2                !
 ! D28   D(21,4,5,7)             0.1776         estimate D2E/DX2                !
 ! D29   D(3,4,33,35)          175.3282         estimate D2E/DX2                !
 ! D30   D(5,4,33,35)            0.1556         estimate D2E/DX2                !
 ! D31   D(4,5,7,8)           -179.5041         estimate D2E/DX2                !
 ! D32   D(4,5,7,22)             0.2897         estimate D2E/DX2                !
 ! D33   D(6,5,7,8)              0.2397         estimate D2E/DX2                !
 ! D34   D(6,5,7,22)          -179.9664         estimate D2E/DX2                !
 ! D35   D(5,7,8,9)             -2.0015         estimate D2E/DX2                !
 ! D36   D(5,7,8,10)           177.9659         estimate D2E/DX2                !
 ! D37   D(22,7,8,9)           178.2052         estimate D2E/DX2                !
 ! D38   D(22,7,8,10)           -1.8274         estimate D2E/DX2                !
 ! D39   D(5,7,34,35)           -1.5673         estimate D2E/DX2                !
 ! D40   D(8,7,34,35)         -177.4041         estimate D2E/DX2                !
 ! D41   D(7,8,9,13)           179.8954         estimate D2E/DX2                !
 ! D42   D(7,8,9,23)            -0.2469         estimate D2E/DX2                !
 ! D43   D(10,8,9,13)           -0.0722         estimate D2E/DX2                !
 ! D44   D(10,8,9,23)          179.7856         estimate D2E/DX2                !
 ! D45   D(7,8,10,11)         -179.8723         estimate D2E/DX2                !
 ! D46   D(7,8,10,24)           -0.0373         estimate D2E/DX2                !
 ! D47   D(9,8,10,11)            0.0975         estimate D2E/DX2                !
 ! D48   D(9,8,10,24)          179.9325         estimate D2E/DX2                !
 ! D49   D(8,9,13,12)           -0.0075         estimate D2E/DX2                !
 ! D50   D(8,9,13,25)          179.9911         estimate D2E/DX2                !
 ! D51   D(23,9,13,12)        -179.8702         estimate D2E/DX2                !
 ! D52   D(23,9,13,25)           0.1284         estimate D2E/DX2                !
 ! D53   D(8,10,11,12)          -0.0433         estimate D2E/DX2                !
 ! D54   D(8,10,11,32)         179.9167         estimate D2E/DX2                !
 ! D55   D(24,10,11,12)       -179.8832         estimate D2E/DX2                !
 ! D56   D(24,10,11,32)          0.0767         estimate D2E/DX2                !
 ! D57   D(10,11,12,13)         -0.0394         estimate D2E/DX2                !
 ! D58   D(10,11,12,29)        179.9656         estimate D2E/DX2                !
 ! D59   D(32,11,12,13)       -179.9981         estimate D2E/DX2                !
 ! D60   D(32,11,12,29)          0.0069         estimate D2E/DX2                !
 ! D61   D(11,12,13,9)           0.0631         estimate D2E/DX2                !
 ! D62   D(11,12,13,25)       -179.9355         estimate D2E/DX2                !
 ! D63   D(29,12,13,9)        -179.9422         estimate D2E/DX2                !
 ! D64   D(29,12,13,25)          0.0592         estimate D2E/DX2                !
 ! D65   D(11,12,29,30)         -0.0354         estimate D2E/DX2                !
 ! D66   D(11,12,29,31)       -179.9783         estimate D2E/DX2                !
 ! D67   D(13,12,29,30)        179.9699         estimate D2E/DX2                !
 ! D68   D(13,12,29,31)          0.027          estimate D2E/DX2                !
 ! D69   D(9,13,25,26)          -0.0385         estimate D2E/DX2                !
 ! D70   D(9,13,25,27)        -119.4697         estimate D2E/DX2                !
 ! D71   D(9,13,25,28)         119.3911         estimate D2E/DX2                !
 ! D72   D(12,13,25,26)        179.96           estimate D2E/DX2                !
 ! D73   D(12,13,25,27)         60.5288         estimate D2E/DX2                !
 ! D74   D(12,13,25,28)        -60.6103         estimate D2E/DX2                !
 ! D75   D(21,33,35,34)          0.7887         estimate D2E/DX2                !
 ! D76   D(21,33,35,36)       -179.0914         estimate D2E/DX2                !
 ! D77   D(22,34,35,33)         -0.3162         estimate D2E/DX2                !
 ! D78   D(22,34,35,36)        179.561          estimate D2E/DX2                !
 ! D79   D(33,35,36,37)        179.5387         estimate D2E/DX2                !
 ! D80   D(33,35,36,38)         58.6533         estimate D2E/DX2                !
 ! D81   D(33,35,36,39)        -59.3442         estimate D2E/DX2                !
 ! D82   D(34,35,36,37)         -0.3395         estimate D2E/DX2                !
 ! D83   D(34,35,36,38)       -121.2249         estimate D2E/DX2                !
 ! D84   D(34,35,36,39)        120.7776         estimate D2E/DX2                !
 ! D85   D(35,36,37,40)        -60.4313         estimate D2E/DX2                !
 ! D86   D(35,36,37,41)       -179.9113         estimate D2E/DX2                !
 ! D87   D(35,36,37,42)         60.5112         estimate D2E/DX2                !
 ! D88   D(38,36,37,40)         60.3705         estimate D2E/DX2                !
 ! D89   D(38,36,37,41)        -59.1095         estimate D2E/DX2                !
 ! D90   D(38,36,37,42)       -178.687          estimate D2E/DX2                !
 ! D91   D(39,36,37,40)        178.5795         estimate D2E/DX2                !
 ! D92   D(39,36,37,41)         59.0994         estimate D2E/DX2                !
 ! D93   D(39,36,37,42)        -60.4781         estimate D2E/DX2                !
 --------------------------------------------------------------------------------
 Trust Radius=3.00D-01 FncErr=1.00D-07 GrdErr=1.00D-06
 Number of steps in this run=    221 maximum allowed number of steps=    252.
 GradGradGradGradGradGradGradGradGradGradGradGradGradGradGradGradGradGrad

                          Input orientation:                          
 ---------------------------------------------------------------------
 Center     Atomic      Atomic             Coordinates (Angstroms)
 Number     Number       Type             X           Y           Z
 ---------------------------------------------------------------------
      1          6           0       -2.216890    2.638690    0.021880
      2          6           0       -0.916460    1.840850    0.026240
      3          6           0        0.303670    2.767940    0.021210
      4          7           0        1.541480    2.005430    0.021950
      5          6           0        2.759120    2.621520    0.024090
      6          8           0        2.802210    3.840770    0.031070
      7          7           0        3.905880    1.866040    0.023600
      8          6           0        5.274060    2.333900    0.035480
      9          6           0        5.659760    3.694170    0.009400
     10          6           0        6.293600    1.375110    0.076360
     11          6           0        7.634670    1.739640    0.092950
     12          6           0        8.037840    3.088480    0.068690
     13          6           0        7.018400    4.094760    0.024920
     14          1           0       -3.080980    1.941390    0.027300
     15          1           0       -2.277260    3.272820   -0.888240
     16          1           0       -2.276150    3.285930    0.922760
     17          1           0       -0.892060    1.189540   -0.874450
     18          1           0       -0.890300    1.199430    0.934080
     19          1           0        0.272100    3.415920    0.924910
     20          1           0        0.270820    3.410100   -0.886610
     21          1           0        1.485860    0.866700    0.022840
     22          1           0        3.758310    0.728030    0.016130
     23          1           0        4.925180    4.469440   -0.025530
     24          1           0        6.060640    0.319890    0.098840
     25          6           0        7.330790    5.586950   -0.005960
     26          9           0        6.188750    6.369270   -0.047400
     27          9           0        8.074690    5.888380   -1.132820
     28          9           0        8.030850    5.944500    1.132500
     29          7           0        9.450430    3.374090    0.089250
     30          8           0       10.241440    2.479550    0.126470
     31          8           0        9.863560    4.491880    0.071060
     32          1           0        8.368400    0.944140    0.126180
     33          8           0        1.427020   -1.189830   -0.222980
     34          8           0        3.649690   -1.331330   -0.244840
     35          6           0        2.567990   -1.902120   -0.318390
     36          6           0        2.482060   -3.391860   -0.517120
     37          6           0        3.849540   -4.066360   -0.618970
     38          1           0        1.914670   -3.592500   -1.450940
     39          1           0        1.926270   -3.833010    0.337680
     40          1           0        4.416310   -3.659840   -1.483790
     41          1           0        3.714260   -5.158760   -0.765720
     42          1           0        4.431840   -3.902310    0.312740
 ---------------------------------------------------------------------
                    Distance matrix (angstroms):
                    1          2          3          4          5
     1  C    0.000000
     2  C    1.525676   0.000000
     3  C    2.523872   1.532396   0.000000
     4  N    3.811347   2.463448   1.453821   0.000000
     5  C    4.976040   3.757571   2.459813   1.364631   0.000000
     6  O    5.161051   4.222346   2.719148   2.226656   1.220031
     7  N    6.171329   4.822407   3.713401   2.368506   1.373248
     8  C    7.497160   6.210131   4.989326   3.747029   2.531359
     9  C    7.947063   6.832404   5.435599   4.451093   3.092654
    10  C    8.603955   7.225261   6.149982   4.794049   3.748175
    11  C    9.892754   8.551989   7.403115   6.099397   4.955143
    12  C   10.264696   9.040900   7.740955   6.586188   5.299521
    13  C    9.349371   8.248764   6.844565   5.861908   4.506873
    14  H    1.110364   2.166854   3.484118   4.622907   5.879571
    15  H    1.110893   2.176830   2.782661   4.125227   5.159618
    16  H    1.110863   2.177329   2.781470   4.126189   5.157809
    17  H    2.158383   1.111775   2.173321   2.718699   4.023563
    18  H    2.159495   1.111880   2.172353   2.719406   4.021031
    19  H    2.759460   2.168209   1.112452   2.101462   2.761850
    20  H    2.758465   2.169211   1.112468   2.100751   2.764574
    21  H    4.104913   2.592320   2.238814   1.140088   2.168083
    22  H    6.273250   4.805408   4.011957   2.558539   2.140969
    23  H    7.373131   6.406007   4.925002   4.186051   2.847646
    24  H    8.596526   7.141324   6.256331   4.823874   4.025310
    25  C    9.992558   9.058225   7.571524   6.807656   5.449298
    26  F    9.196565   8.425914   6.899888   6.375345   5.080660
    27  F   10.854052   9.928076   8.453265   7.687238   6.345557
    28  F   10.824880   9.905459   8.428215   7.672126   6.329448
    29  N   11.690668  10.479847   9.167075   8.026783   6.733813
    30  O   12.459785  11.176615   9.942511   8.713496   7.484367
    31  O   12.221866  11.101297   9.714214   8.685727   7.346667
    32  H   10.720576   9.328596   8.269047   6.909706   5.855600
    33  O    5.291087   3.839144   4.121345   3.206677   4.044987
    34  O    7.088650   5.566501   5.298174   3.955969   4.060845
    35  C    6.605287   5.125425   5.201147   4.054442   4.540610
    36  C    7.664084   6.263101   6.555785   5.505091   6.044039
    37  C    9.064765   7.617492   7.725974   6.527216   6.806635
    38  H    7.620152   6.302273   6.724414   5.800474   6.442271
    39  H    7.690800   6.353802   6.804816   5.859619   6.515592
    40  H    9.270268   7.808727   7.777865   6.528950   6.668993
    41  H    9.828483   8.430024   8.665100   7.527750   7.878379
    42  H    9.331393   7.853043   7.849778   6.583322   6.741044
                    6          7          8          9         10
     6  O    0.000000
     7  N    2.262234   0.000000
     8  C    2.894947   1.446012   0.000000
     9  C    2.861390   2.533447   1.414135   0.000000
    10  C    4.274498   2.438238   1.400147   2.405052   0.000000
    11  C    5.269843   3.731576   2.434939   2.779827   1.389830
    12  C    5.289535   4.309233   2.865131   2.454718   2.445009
    13  C    4.223838   3.828182   2.478601   1.416551   2.815045
    14  H    6.182199   6.987267   8.364259   8.914768   9.391796
    15  H    5.193141   6.406380   7.665329   7.998724   8.831274
    16  H    5.185817   6.406409   7.661547   7.998722   8.820898
    17  H    4.636445   4.927918   6.337079   7.069703   7.250668
    18  H    4.628902   4.927138   6.331970   7.069798   7.237055
    19  H    2.716782   4.052017   5.194368   5.471971   6.414312
    20  H    2.726820   4.052933   5.200083   5.470302   6.429804
    21  H    3.252374   2.618239   4.062425   5.041449   4.834843
    22  H    3.256302   1.147562   2.208323   3.523286   2.617257
    23  H    2.214821   2.796261   2.164710   1.068584   3.384942
    24  H    4.797766   2.653155   2.163090   3.399187   1.080863
    25  C    4.853715   5.057277   3.848921   2.524915   4.338449
    26  F    4.227070   5.049318   4.138567   2.727493   4.996793
    27  F    5.774633   5.907242   4.673626   3.457038   5.000400
    28  F    5.742604   5.905834   4.673305   3.456502   5.001279
    29  N    6.664833   5.746352   4.304295   3.804998   3.736531
    30  O    7.563343   6.366027   4.970348   4.741392   4.099724
    31  O    7.091418   6.510855   5.071652   4.279261   4.739082
    32  H    6.275507   4.557906   3.393317   3.861740   2.119673
    33  O    5.221362   3.942574   5.223331   6.467113   5.509276
    34  O    5.248330   3.218830   4.018839   5.418549   3.797137
    35  C    5.758278   4.013220   5.039038   6.401949   4.977573
    36  C    7.260437   5.474044   6.394135   7.783754   6.132215
    37  C    8.002634   5.967365   6.589453   7.993596   6.005540
    38  H    7.631355   5.994568   6.972601   8.321890   6.795942
    39  H    7.729695   6.041248   7.023518   8.408636   6.801939
    40  H    7.820439   5.750488   6.242502   7.606395   5.595445
    41  H    9.080652   7.071602   7.695119   9.097261   7.074853
    42  H    7.917722   5.799491   6.298930   7.701059   5.601177
                   11         12         13         14         15
    11  C    0.000000
    12  C    1.408014   0.000000
    13  C    2.435366   1.433099   0.000000
    14  H   10.717750  11.177911  10.326397   0.000000
    15  H   10.077685  10.361032   9.376499   1.804684   0.000000
    16  H   10.064986  10.351174   9.372779   1.804823   1.811048
    17  H    8.599046   9.178159   8.474936   2.483909   2.501804
    18  H    8.583382   9.166738   8.470953   2.484318   3.089248
    19  H    7.596678   7.819658   6.839837   3.771351   3.131649
    20  H    7.614214   7.832154   6.843207   3.771857   2.551776
    21  H    6.210862   6.918587   6.405418   4.691589   4.558569
    22  H    4.006922   4.887624   4.686484   6.946096   6.612257
    23  H    3.848010   3.406550   2.127087   8.395977   7.351960
    24  H    2.119739   3.402252   3.895178   9.284589   8.900264
    25  C    3.860560   2.597661   1.524851  11.031599   9.922109
    26  F    4.852201   3.767784   2.422178  10.273247   9.053637
    27  F    4.348353   3.047035   2.381844  11.890062  10.680068
    28  F    4.349537   3.047719   2.381875  11.862509  10.838745
    29  N    2.443036   1.441321   2.537375  12.613196  11.768792
    30  O    2.709952   2.286917   3.606550  13.333654  12.584783
    31  O    3.541646   2.302779   2.873111  13.193484  12.239521
    32  H    1.082721   2.170431   3.429163  11.493154  10.944491
    33  O    6.871428   7.879844   7.697524   5.494474   5.837766
    34  O    5.042323   6.236095   6.392451   7.489104   7.532655
    35  C    6.253228   7.414525   7.475733   6.841267   7.112045
    36  C    7.297525   8.555973   8.770500   7.725760   8.197976
    37  C    6.967329   8.319043   8.778391   9.194718   9.564191
    38  H    7.970804   9.189014   9.344527   7.600372   8.063593
    39  H    7.981237   9.237460   9.427468   7.649352   8.346578
    40  H    6.480612   7.814442   8.317506   9.479796   9.655068
    41  H    7.980905   9.349147   9.857489   9.859833  10.344316
    42  H    6.491381   7.869812   8.409891   9.522225   9.896306
                   16         17         18         19         20
    16  H    0.000000
    17  H    3.088773   0.000000
    18  H    2.504833   1.808558   0.000000
    19  H    2.551564   3.090264   2.502816   0.000000
    20  H    3.126707   2.506656   3.090336   1.811530   0.000000
    21  H    4.562373   2.562003   2.566555   2.964029   2.961808
    22  H    6.616611   4.757317   4.761767   4.494919   4.491216
    23  H    7.359287   6.731916   6.740447   4.864606   4.850436
    24  H    8.886974   7.074152   7.055975   6.616267   6.636454
    25  C    9.922223   9.365188   9.365913   7.443453   7.440255
    26  F    9.061056   8.812008   8.820629   6.683892   6.669547
    27  F   10.869133  10.126621  10.326150   8.439652   8.191635
    28  F   10.646419  10.308046  10.106531   8.163027   8.409403
    29  N   11.756496  10.614522  10.600641   9.216389   9.231405
    30  O   12.568786  11.252590  11.234170  10.045001  10.065064
    31  O   12.229156  11.290828  11.279651   9.689317   9.700930
    32  H   10.928173   9.317596   9.297387   8.502808   8.525110
    33  O    5.921032   3.385845   3.523822   4.885123   4.789213
    34  O    7.602497   5.232465   5.329738   5.942458   5.857456
    35  C    7.205693   4.673276   4.811243   5.924395   5.815457
    36  C    8.325064   5.701017   5.878668   7.301318   7.161897
    37  C    9.693151   7.083257   7.253040   8.436004   8.293149
    38  H    8.397037   5.574763   6.043076   7.580280   7.215062
    39  H    8.287458   5.885427   5.797776   7.458425   7.530076
    40  H    9.941037   7.215717   7.590699   8.546502   8.217406
    41  H   10.490413   7.844165   8.032302   9.393180   9.235651
    42  H    9.850891   7.461921   7.398580   8.440064   8.498463
                   21         22         23         24         25
    21  H    0.000000
    22  H    2.276687   0.000000
    23  H    4.981064   3.919371   0.000000
    24  H    4.607970   2.339689   4.303894   0.000000
    25  C    7.512975   6.030937   2.652578   5.419058   0.000000
    26  F    7.238811   6.142855   2.281763   6.052503   1.384918
    27  F    8.364538   6.824986   3.627519   6.048261   1.383496
    28  F    8.357768   6.834650   3.627950   6.048671   1.383480
    29  N    8.350197   6.277516   4.657344   4.562774   3.065728
    30  O    8.903494   6.716470   5.678502   4.705739   4.259737
    31  O    9.128533   7.172424   4.939375   5.645217   2.760441
    32  H    6.883751   4.616464   4.930164   2.390856   4.759179
    33  O    2.072005   3.028246   6.656083   4.883980   8.990347
    34  O    3.095989   2.078670   5.943392   2.942333   7.840291
    35  C    2.992291   2.906278   6.799918   4.160530   8.880768
    36  C    4.406734   4.345879   8.246850   5.192565  10.217167
    37  C    5.507630   4.837132   8.623749   4.964212  10.280140
    38  H    4.715970   4.921207   8.722949   5.907426  10.755679
    39  H    4.730788   4.925734   8.834934   5.864865  10.865660
    40  H    5.598842   4.683602   8.274700   4.587678   9.807207
    41  H    6.472539   5.938647   9.732237   6.022339  11.363398
    42  H    5.613047   4.688461   8.393093   4.530531   9.927313
                   26         27         28         29         30
    26  F    0.000000
    27  F    2.228489   0.000000
    28  F    2.228436   2.266439   0.000000
    29  N    4.430387   3.115729   3.116181   0.000000
    30  O    5.620004   4.230926   4.231393   1.194690   0.000000
    31  O    4.128299   2.568968   2.568187   1.191831   2.048252
    32  H    5.849191   5.110465   5.111773   2.660227   2.421934
    33  O    8.935597   9.752968   9.815628   9.235906   9.554081
    34  O    8.110798   8.514302   8.604030   7.476709   7.623113
    35  C    9.033229   9.574912   9.670438   8.681736   8.847529
    36  C   10.451787  10.852624  10.985351   9.731595   9.751699
    37  C   10.709854  10.826485  10.989464   9.339799   9.179379
    38  H   10.930441  11.310797  11.620507  10.377535  10.425599
    39  H   11.063613  11.596157  11.554105  10.421948  10.441986
    40  H   10.285320  10.231101  10.590242   8.791643   8.614940
    41  H   11.812475  11.882231  12.063108  10.317177  10.086816
    42  H   10.426974  10.545976  10.515919   8.842069   8.632166
                   31         32         33         34         35
    31  O    0.000000
    32  H    3.850325   0.000000
    33  O   10.175632   7.270385   0.000000
    34  O    8.521839   5.251823   2.227277   0.000000
    35  C    9.708772   6.476387   1.348433   1.225270   0.000000
    36  C   10.816000   7.339191   2.459383   2.383963   1.505391
    37  C   10.482750   6.788259   3.781512   2.767725   2.533111
    38  H   11.439342   8.044815   2.741990   3.094812   2.137026
    39  H   11.505453   8.022901   2.747725   3.093204   2.137889
    40  H    9.926763   6.277551   4.077554   2.746755   2.804287
    41  H   11.473837   7.726700   4.612856   3.863251   3.481342
    42  H   10.001221   6.246550   4.083318   2.744557   2.805891
                   36         37         38         39         40
    36  C    0.000000
    37  C    1.528177   0.000000
    38  H    1.110949   2.158805   0.000000
    39  H    1.110945   2.160694   1.804755   0.000000
    40  H    2.178896   1.111036   2.502762   3.089990   0.000000
    41  H    2.168422   1.110484   2.482181   2.484354   1.804234
    42  H    2.179649   1.110887   3.089125   2.506652   1.812885
                   41         42
    41  H    0.000000
    42  H    1.804623   0.000000
 Stoichiometry    C14H17F3N3O5(1-)
 Framework group  C1[X(C14H17F3N3O5)]
 Deg. of freedom   120
 Full point group                 C1      NOp   1
 Largest Abelian subgroup         C1      NOp   1
 Largest concise Abelian subgroup C1      NOp   1
                         Standard orientation:                         
 ---------------------------------------------------------------------
 Center     Atomic      Atomic             Coordinates (Angstroms)
 Number     Number       Type             X           Y           Z
 ---------------------------------------------------------------------
      1          6           0       -5.612820   -4.145491   -0.032944
      2          6           0       -4.956267   -2.769325   -0.085786
      3          6           0       -3.428839   -2.880519   -0.032524
      4          7           0       -2.805677   -1.567869   -0.079590
      5          6           0       -1.449341   -1.420405   -0.050876
      6          8           0       -0.749658   -2.417995    0.010230
      7          7           0       -0.898741   -0.163182   -0.096051
      8          6           0        0.503460    0.189914   -0.085800
      9          6           0        1.566246   -0.737484    0.015186
     10          6           0        0.837920    1.546029   -0.183275
     11          6           0        2.161301    1.970633   -0.183427
     12          6           0        3.232569    1.062233   -0.084949
     13          6           0        2.923950   -0.333445    0.018067
     14          1           0       -6.716650   -4.032729   -0.074797
     15          1           0       -5.343910   -4.665095    0.911399
     16          1           0       -5.285157   -4.763342   -0.896027
     17          1           0       -5.315372   -2.167068    0.776984
     18          1           0       -5.257895   -2.262144   -1.028158
     19          1           0       -3.077474   -3.484041   -0.898464
     20          1           0       -3.132418   -3.391965    0.909890
     21          1           0       -3.471838   -0.644896   -0.144013
     22          1           0       -1.641851    0.709501   -0.151813
     23          1           0        1.371066   -1.785009    0.095608
     24          1           0        0.069085    2.301431   -0.264056
     25          6           0        3.996898   -1.410988    0.131443
     26          9           0        3.463686   -2.686074    0.219969
     27          9           0        4.753171   -1.203399    1.271188
     28          9           0        4.810347   -1.384185   -0.987306
     29          7           0        4.573098    1.591677   -0.093692
     30          8           0        4.750772    2.769682   -0.183240
     31          8           0        5.527181    0.881837   -0.014229
     32          1           0        2.344714    3.034713   -0.263282
     33          8           0       -4.646949    1.056654   -0.013444
     34          8           0       -2.860670    2.387036   -0.006129
     35          6           0       -4.080363    2.279170    0.038586
     36          6           0       -4.968502    3.489174    0.153925
     37          6           0       -4.191591    4.803764    0.213826
     38          1           0       -5.579600    3.393356    1.076739
     39          1           0       -5.650663    3.514235   -0.722561
     40          1           0       -3.519344    4.814163    1.098347
     41          1           0       -4.903479    5.651718    0.299640
     42          1           0       -3.587956    4.938440   -0.708972
 ---------------------------------------------------------------------
 Rotational constants (GHZ):      0.2637330      0.0958791      0.0715479
 General basis read from cards:  (6D, 7F)
 There are   509 symmetry adapted cartesian basis functions of A   symmetry.
 There are   509 symmetry adapted basis functions of A   symmetry.
   509 basis functions,   868 primitive gaussians,   509 cartesian basis functions
    95 alpha electrons       95 beta electrons
       nuclear repulsion energy      2202.7697039159 Hartrees.
 NAtoms=   42 NActive=   42 NUniq=   42 SFac= 1.00D+00 NAtFMM=   60 NAOKFM=F Big=F
 Integral buffers will be    131072 words long.
 Raffenetti 2 integral format.
 Two-electron integral symmetry is turned on.
 ------------------------------------------------------------------------------
 Polarizable Continuum Model (PCM)
 =================================
 Model                : PCM (using non-symmetric T matrix).
 Atomic radii         : SMD-Coulomb.
 Polarization charges : Total charges.
 Charge compensation  : None.
 Solution method      : On-the-fly selection.
 Cavity type          : VdW (van der Waals Surface) (Alpha=1.000).
 Cavity algorithm     : GePol (No added spheres)
                        Default sphere list used, NSphG=   42.
                        Lebedev-Laikov grids with approx.  5.0 points / Ang**2.
                        Smoothing algorithm: York/Karplus (Gamma=1.0000).
                        Polarization charges: spherical gaussians, with
                                              point-specific exponents (IZeta= 3).
                        Self-potential: point-specific (ISelfS= 7).
                        Self-field    : sphere-specific E.n sum rule (ISelfD= 2).
 1st derivatives      : Analytical E(r).r(x)/FMM algorithm (CHGder, D1EAlg=3).
                        Cavity 1st derivative terms included.
 Solvent              : n-Pentadecane, Eps=   2.033300 Eps(inf)=   2.049192
 ------------------------------------------------------------------------------
 ------------------------------------------------------------------------------
 Atomic radii for non-electrostatic terms: SMD-CDS.
 ------------------------------------------------------------------------------
 Nuclear repulsion after PCM non-electrostatic terms =     2202.7602829970 Hartrees.
 One-electron integrals computed using PRISM.
 NBasis=   509 RedAO= T EigKep=  1.07D-06  NBF=   509
 NBsUse=   508 1.00D-06 EigRej=  2.22D-07 NBFU=   508
 ExpMin= 4.38D-02 ExpMax= 7.00D+03 ExpMxC= 1.05D+03 IAcc=3 IRadAn=         5 AccDes= 0.00D+00
 Harris functional with IExCor= 1009 and IRadAn=       5 diagonalized for initial guess.
 HarFok:  IExCor= 1009 AccDes= 0.00D+00 IRadAn=         5 IDoV= 1 UseB2=F ITyADJ=14
 ICtDFT=  3500011 ScaDFX=  1.000000  1.000000  1.000000  1.000000
 FoFCou: FMM=F IPFlag=           0 FMFlag=      100000 FMFlg1=           0
         NFxFlg=           0 DoJE=T BraDBF=F KetDBF=T FulRan=T
         wScrn=  0.000000 ICntrl=     500 IOpCl=  0 I1Cent=   200000004 NGrid=           0
         NMat0=    1 NMatS0=      1 NMatT0=    0 NMatD0=    1 NMtDS0=    0 NMtDT0=    0
 Petite list used in FoFCou.
 Requested convergence on RMS density matrix=1.00D-08 within 128 cycles.
 Requested convergence on MAX density matrix=1.00D-06.
 Requested convergence on             energy=1.00D-06.
 No special actions if energy rises.
 Inv3:  Mode=1 IEnd=    35500800.
 Iteration    1 A*A^-1 deviation from unit magnitude is 4.66D-15 for   3429.
 Iteration    1 A*A^-1 deviation from orthogonality  is 2.16D-15 for   2608   2386.
 Iteration    1 A^-1*A deviation from unit magnitude is 4.44D-15 for   3405.
 Iteration    1 A^-1*A deviation from orthogonality  is 1.84D-15 for   1692   1168.
 Error on total polarization charges =  0.02354
 SCF Done:  E(RM062X) =  -1383.18356621     A.U. after   16 cycles
            NFock= 16  Conv=0.64D-08     -V/T= 2.0089
 SMD-CDS (non-electrostatic) energy       (kcal/mol) =      -5.91
 (included in total energy above)

 **********************************************************************

            Population analysis using the SCF density.

 **********************************************************************

 Orbital symmetries:
       Occupied  (A) (A) (A) (A) (A) (A) (A) (A) (A) (A) (A) (A)
                 (A) (A) (A) (A) (A) (A) (A) (A) (A) (A) (A) (A)
                 (A) (A) (A) (A) (A) (A) (A) (A) (A) (A) (A) (A)
                 (A) (A) (A) (A) (A) (A) (A) (A) (A) (A) (A) (A)
                 (A) (A) (A) (A) (A) (A) (A) (A) (A) (A) (A) (A)
                 (A) (A) (A) (A) (A) (A) (A) (A) (A) (A) (A) (A)
                 (A) (A) (A) (A) (A) (A) (A) (A) (A) (A) (A) (A)
                 (A) (A) (A) (A) (A) (A) (A) (A) (A) (A) (A)
       Virtual   (A) (A) (A) (A) (A) (A) (A) (A) (A) (A) (A) (A)
                 (A) (A) (A) (A) (A) (A) (A) (A) (A) (A) (A) (A)
                 (A) (A) (A) (A) (A) (A) (A) (A) (A) (A) (A) (A)
                 (A) (A) (A) (A) (A) (A) (A) (A) (A) (A) (A) (A)
                 (A) (A) (A) (A) (A) (A) (A) (A) (A) (A) (A) (A)
                 (A) (A) (A) (A) (A) (A) (A) (A) (A) (A) (A) (A)
                 (A) (A) (A) (A) (A) (A) (A) (A) (A) (A) (A) (A)
                 (A) (A) (A) (A) (A) (A) (A) (A) (A) (A) (A) (A)
                 (A) (A) (A) (A) (A) (A) (A) (A) (A) (A) (A) (A)
                 (A) (A) (A) (A) (A) (A) (A) (A) (A) (A) (A) (A)
                 (A) (A) (A) (A) (A) (A) (A) (A) (A) (A) (A) (A)
                 (A) (A) (A) (A) (A) (A) (A) (A) (A) (A) (A) (A)
                 (A) (A) (A) (A) (A) (A) (A) (A) (A) (A) (A) (A)
                 (A) (A) (A) (A) (A) (A) (A) (A) (A) (A) (A) (A)
                 (A) (A) (A) (A) (A) (A) (A) (A) (A) (A) (A) (A)
                 (A) (A) (A) (A) (A) (A) (A) (A) (A) (A) (A) (A)
                 (A) (A) (A) (A) (A) (A) (A) (A) (A) (A) (A) (A)
                 (A) (A) (A) (A) (A) (A) (A) (A) (A) (A) (A) (A)
                 (A) (A) (A) (A) (A) (A) (A) (A) (A) (A) (A) (A)
                 (A) (A) (A) (A) (A) (A) (A) (A) (A) (A) (A) (A)
                 (A) (A) (A) (A) (A) (A) (A) (A) (A) (A) (A) (A)
                 (A) (A) (A) (A) (A) (A) (A) (A) (A) (A) (A) (A)
                 (A) (A) (A) (A) (A) (A) (A) (A) (A) (A) (A) (A)
                 (A) (A) (A) (A) (A) (A) (A) (A) (A) (A) (A) (A)
                 (A) (A) (A) (A) (A) (A) (A) (A) (A) (A) (A) (A)
                 (A) (A) (A) (A) (A) (A) (A) (A) (A) (A) (A) (A)
                 (A) (A) (A) (A) (A) (A) (A) (A) (A) (A) (A) (A)
                 (A) (A) (A) (A) (A) (A) (A) (A) (A) (A) (A) (A)
                 (A) (A) (A) (A) (A) (A) (A) (A) (A) (A) (A) (A)
                 (A) (A) (A) (A) (A) (A) (A) (A) (A) (A) (A) (A)
                 (A) (A) (A) (A) (A) (A) (A) (A) (A) (A) (A) (A)
                 (A) (A) (A) (A) (A) (A) (A) (A) (A) (A) (A) (A)
                 (A) (A) (A) (A) (A) (A) (A) (A) (A) (A) (A) (A)
                 (A) (A) (A) (A) (A) (A) (A) (A) (A) (A) (A) (A)
                 (A) (A) (A) (A) (A)
 The electronic state is 1-A.
 Alpha  occ. eigenvalues --  -25.27227 -25.26494 -25.26494 -19.63839 -19.63711
 Alpha  occ. eigenvalues --  -19.55065 -19.52999 -19.50195 -14.98173 -14.76103
 Alpha  occ. eigenvalues --  -14.72342 -10.79401 -10.62628 -10.59815 -10.59257
 Alpha  occ. eigenvalues --  -10.58226 -10.56846 -10.55244 -10.54289 -10.53769
 Alpha  occ. eigenvalues --  -10.53147 -10.50124 -10.50084 -10.48815 -10.48622
 Alpha  occ. eigenvalues --   -1.40853  -1.36382  -1.32974  -1.32858  -1.15340
 Alpha  occ. eigenvalues --   -1.12393  -1.08088  -0.99458  -0.96354  -0.95057
 Alpha  occ. eigenvalues --   -0.94666  -0.87504  -0.86263  -0.82974  -0.80525
 Alpha  occ. eigenvalues --   -0.78767  -0.75930  -0.71950  -0.69329  -0.66705
 Alpha  occ. eigenvalues --   -0.66314  -0.64427  -0.64091  -0.63865  -0.62191
 Alpha  occ. eigenvalues --   -0.60781  -0.60644  -0.58749  -0.57565  -0.55721
 Alpha  occ. eigenvalues --   -0.53826  -0.53164  -0.52687  -0.51720  -0.50511
 Alpha  occ. eigenvalues --   -0.50383  -0.49626  -0.49582  -0.48185  -0.47879
 Alpha  occ. eigenvalues --   -0.47736  -0.47051  -0.46993  -0.45748  -0.45307
 Alpha  occ. eigenvalues --   -0.44672  -0.43372  -0.43199  -0.41951  -0.40798
 Alpha  occ. eigenvalues --   -0.40758  -0.39810  -0.38656  -0.37896  -0.37419
 Alpha  occ. eigenvalues --   -0.36577  -0.35440  -0.35310  -0.34951  -0.34195
 Alpha  occ. eigenvalues --   -0.34138  -0.33878  -0.33203  -0.29915  -0.28816
 Alpha  occ. eigenvalues --   -0.26204  -0.25028  -0.23969  -0.23173  -0.22296
 Alpha virt. eigenvalues --   -0.02170   0.03004   0.05670   0.06671   0.06816
 Alpha virt. eigenvalues --    0.07462   0.07582   0.07969   0.08007   0.08221
 Alpha virt. eigenvalues --    0.08723   0.09382   0.09486   0.09853   0.10117
 Alpha virt. eigenvalues --    0.10381   0.11413   0.11573   0.11787   0.12483
 Alpha virt. eigenvalues --    0.12516   0.13007   0.13354   0.13405   0.14247
 Alpha virt. eigenvalues --    0.14331   0.14690   0.14843   0.15024   0.15914
 Alpha virt. eigenvalues --    0.16039   0.16234   0.16479   0.16796   0.17415
 Alpha virt. eigenvalues --    0.17620   0.18052   0.18450   0.18604   0.19247
 Alpha virt. eigenvalues --    0.19576   0.19632   0.20156   0.20476   0.20858
 Alpha virt. eigenvalues --    0.21393   0.21480   0.21669   0.22644   0.22956
 Alpha virt. eigenvalues --    0.23273   0.23961   0.24234   0.24637   0.24941
 Alpha virt. eigenvalues --    0.25520   0.25922   0.26109   0.26508   0.26747
 Alpha virt. eigenvalues --    0.27217   0.27625   0.27912   0.27987   0.28524
 Alpha virt. eigenvalues --    0.28679   0.28967   0.29317   0.29356   0.29644
 Alpha virt. eigenvalues --    0.29798   0.29882   0.30731   0.31068   0.31446
 Alpha virt. eigenvalues --    0.31877   0.32249   0.32606   0.32799   0.32879
 Alpha virt. eigenvalues --    0.33359   0.33624   0.33842   0.33955   0.34392
 Alpha virt. eigenvalues --    0.35112   0.35373   0.35482   0.35921   0.36201
 Alpha virt. eigenvalues --    0.37009   0.37084   0.37194   0.37457   0.37711
 Alpha virt. eigenvalues --    0.37963   0.38285   0.38632   0.39027   0.39303
 Alpha virt. eigenvalues --    0.39398   0.40036   0.40782   0.41000   0.41115
 Alpha virt. eigenvalues --    0.41739   0.41822   0.42734   0.42800   0.43212
 Alpha virt. eigenvalues --    0.43666   0.43734   0.44063   0.44349   0.45047
 Alpha virt. eigenvalues --    0.45915   0.46045   0.46987   0.47189   0.47532
 Alpha virt. eigenvalues --    0.49180   0.49545   0.50102   0.50573   0.51247
 Alpha virt. eigenvalues --    0.51379   0.51932   0.52366   0.53024   0.53900
 Alpha virt. eigenvalues --    0.54175   0.55092   0.56188   0.56433   0.57181
 Alpha virt. eigenvalues --    0.58202   0.59259   0.59676   0.61025   0.61572
 Alpha virt. eigenvalues --    0.62474   0.65142   0.65822   0.66577   0.69697
 Alpha virt. eigenvalues --    0.71679   0.73536   0.74222   0.75102   0.76036
 Alpha virt. eigenvalues --    0.77283   0.77372   0.78249   0.79293   0.80219
 Alpha virt. eigenvalues --    0.80849   0.80997   0.81446   0.81741   0.82183
 Alpha virt. eigenvalues --    0.82359   0.82994   0.85051   0.86166   0.86397
 Alpha virt. eigenvalues --    0.87276   0.87858   0.88191   0.89831   0.91248
 Alpha virt. eigenvalues --    0.91554   0.92532   0.93591   0.93916   0.94438
 Alpha virt. eigenvalues --    0.95266   0.96862   0.98531   1.00352   1.01610
 Alpha virt. eigenvalues --    1.02042   1.02595   1.03424   1.04680   1.05003
 Alpha virt. eigenvalues --    1.05399   1.06690   1.07561   1.09430   1.11009
 Alpha virt. eigenvalues --    1.11216   1.11677   1.13315   1.13575   1.14147
 Alpha virt. eigenvalues --    1.16379   1.16500   1.18588   1.19037   1.19538
 Alpha virt. eigenvalues --    1.20617   1.20766   1.21488   1.22207   1.22801
 Alpha virt. eigenvalues --    1.23570   1.24488   1.25419   1.25562   1.26182
 Alpha virt. eigenvalues --    1.27297   1.29123   1.29759   1.30479   1.31605
 Alpha virt. eigenvalues --    1.32294   1.32566   1.33874   1.35204   1.36561
 Alpha virt. eigenvalues --    1.37238   1.38498   1.39109   1.39368   1.41436
 Alpha virt. eigenvalues --    1.42435   1.42795   1.43001   1.44968   1.45243
 Alpha virt. eigenvalues --    1.45899   1.46073   1.47521   1.48718   1.48945
 Alpha virt. eigenvalues --    1.49579   1.50467   1.51058   1.52471   1.52874
 Alpha virt. eigenvalues --    1.53410   1.53829   1.54013   1.55829   1.56191
 Alpha virt. eigenvalues --    1.57080   1.61054   1.61384   1.62007   1.62966
 Alpha virt. eigenvalues --    1.63480   1.64760   1.66547   1.68804   1.69359
 Alpha virt. eigenvalues --    1.70463   1.70599   1.72462   1.73488   1.74668
 Alpha virt. eigenvalues --    1.75816   1.77267   1.77890   1.78460   1.78724
 Alpha virt. eigenvalues --    1.79079   1.79815   1.81087   1.82294   1.84037
 Alpha virt. eigenvalues --    1.84417   1.85979   1.88586   1.89740   1.90196
 Alpha virt. eigenvalues --    1.90878   1.91242   1.91851   1.91951   1.92709
 Alpha virt. eigenvalues --    1.92898   1.93009   1.93715   1.94364   1.94896
 Alpha virt. eigenvalues --    1.95501   1.95775   1.97230   1.98632   1.98882
 Alpha virt. eigenvalues --    1.99124   2.00048   2.00656   2.00963   2.02173
 Alpha virt. eigenvalues --    2.02883   2.03561   2.03669   2.03872   2.04255
 Alpha virt. eigenvalues --    2.05872   2.07941   2.08482   2.08528   2.09125
 Alpha virt. eigenvalues --    2.10592   2.10946   2.11192   2.11498   2.12607
 Alpha virt. eigenvalues --    2.13497   2.14656   2.14986   2.15196   2.16917
 Alpha virt. eigenvalues --    2.16991   2.18439   2.18857   2.19494   2.20429
 Alpha virt. eigenvalues --    2.22205   2.23253   2.24467   2.25803   2.26771
 Alpha virt. eigenvalues --    2.28290   2.29056   2.30310   2.31809   2.33394
 Alpha virt. eigenvalues --    2.34111   2.35577   2.36341   2.37141   2.37428
 Alpha virt. eigenvalues --    2.37907   2.40790   2.41886   2.42236   2.43132
 Alpha virt. eigenvalues --    2.44266   2.45150   2.46868   2.47755   2.52503
 Alpha virt. eigenvalues --    2.53021   2.55160   2.59575   2.60073   2.62223
 Alpha virt. eigenvalues --    2.63203   2.63244   2.65898   2.67551   2.67965
 Alpha virt. eigenvalues --    2.70359   2.71450   2.73605   2.76903   2.78200
 Alpha virt. eigenvalues --    2.79102   2.79815   2.80315   2.80971   2.82371
 Alpha virt. eigenvalues --    2.85269   2.86647   2.89419   2.91610   2.95114
 Alpha virt. eigenvalues --    2.95680   2.98748   3.04742   3.06564   3.10885
 Alpha virt. eigenvalues --    3.11747   3.17133   3.17239   3.20134   3.23739
 Alpha virt. eigenvalues --    3.24570   3.26715   3.28851   3.32804   3.34082
 Alpha virt. eigenvalues --    3.39727   3.44953   3.47629   4.25452   4.28647
 Alpha virt. eigenvalues --    4.29073   4.33021   4.34843   4.36136   4.41335
 Alpha virt. eigenvalues --    4.45296   4.45398   4.48237   4.50388   4.52140
 Alpha virt. eigenvalues --    4.55572   4.59192   4.60560   4.65067   4.68764
 Alpha virt. eigenvalues --    4.70912   4.78166   4.82509   4.85419   4.95423
 Alpha virt. eigenvalues --    5.62946   6.24175   7.20703
          Condensed to atoms (all electrons):
               1          2          3          4          5          6
     1  C    5.830388  -0.204470   0.043365  -0.017362  -0.062307  -0.000699
     2  C   -0.204470   6.355514  -0.496885  -0.067140   0.189470   0.021663
     3  C    0.043365  -0.496885   7.223078   0.359956  -0.811800  -0.097541
     4  N   -0.017362  -0.067140   0.359956   7.718006   0.490332  -0.185677
     5  C   -0.062307   0.189470  -0.811800   0.490332   6.913411   0.655518
     6  O   -0.000699   0.021663  -0.097541  -0.185677   0.655518   8.318203
     7  N   -0.004470   0.016216  -0.201575  -0.365317   0.179524  -0.063194
     8  C   -0.011075   0.031770  -0.427786  -0.251223  -0.694563  -0.560421
     9  C    0.001614  -0.026468   0.048404   0.109082   0.561443   0.566504
    10  C   -0.003614   0.019785  -0.178947  -0.160721  -1.661749  -0.151875
    11  C   -0.000183   0.001718   0.014413  -0.028420   0.488121  -0.009833
    12  C   -0.000091   0.000125  -0.027233  -0.013376  -0.363953  -0.009203
    13  C    0.000085  -0.003405  -0.026062   0.042397  -0.344418   0.118921
    14  H    0.449011  -0.124214   0.028248   0.000303  -0.002334   0.000005
    15  H    0.419287  -0.068579  -0.006085   0.000177  -0.000924  -0.000045
    16  H    0.421845  -0.069338  -0.009303   0.000017   0.000364  -0.000037
    17  H   -0.033016   0.425004  -0.078128   0.005383  -0.003028  -0.000153
    18  H   -0.033798   0.419116  -0.067896   0.005434  -0.008454  -0.000199
    19  H   -0.006230  -0.050083   0.447337  -0.055278  -0.028127   0.001286
    20  H   -0.005151  -0.054190   0.448648  -0.055855  -0.027711   0.001320
    21  H    0.001493   0.000974  -0.053097   0.170308   0.023755   0.004008
    22  H    0.000223   0.000140   0.009255   0.032697  -0.010246   0.003427
    23  H    0.000017  -0.000042   0.003279   0.000896   0.022853   0.000848
    24  H   -0.000000   0.000014  -0.000126   0.000705  -0.002768   0.000031
    25  C   -0.000113   0.000263  -0.009496   0.005207  -0.222196   0.009059
    26  F   -0.000000   0.000004   0.000050  -0.000011   0.002739  -0.000579
    27  F    0.000000  -0.000001   0.000027   0.000009   0.002895  -0.000002
    28  F    0.000000  -0.000001   0.000035   0.000009   0.003452   0.000018
    29  N    0.000001  -0.000001   0.000238  -0.000050   0.009607   0.000050
    30  O    0.000000  -0.000000   0.000009   0.000005   0.001713   0.000001
    31  O   -0.000000   0.000000  -0.000012   0.000001  -0.001489   0.000017
    32  H    0.000000   0.000000   0.000033   0.000010   0.004265   0.000001
    33  O    0.006527   0.012295  -0.011659  -0.031864  -0.000161  -0.000293
    34  O   -0.000084  -0.000996   0.009398   0.008111   0.032007  -0.000094
    35  C   -0.002725  -0.003213  -0.000839  -0.006159  -0.016828  -0.000908
    36  C    0.002744  -0.001025   0.019568  -0.011276  -0.011476  -0.000629
    37  C   -0.000325  -0.000224  -0.001793   0.001799   0.001332   0.000047
    38  H    0.000007   0.000026  -0.000004  -0.000051  -0.000091  -0.000000
    39  H    0.000003  -0.000001   0.000032  -0.000027  -0.000058  -0.000000
    40  H    0.000000   0.000005  -0.000007   0.000001  -0.000053  -0.000000
    41  H    0.000000   0.000002  -0.000002  -0.000002   0.000011   0.000000
    42  H    0.000000   0.000007  -0.000014   0.000000  -0.000134  -0.000000
               7          8          9         10         11         12
     1  C   -0.004470  -0.011075   0.001614  -0.003614  -0.000183  -0.000091
     2  C    0.016216   0.031770  -0.026468   0.019785   0.001718   0.000125
     3  C   -0.201575  -0.427786   0.048404  -0.178947   0.014413  -0.027233
     4  N   -0.365317  -0.251223   0.109082  -0.160721  -0.028420  -0.013376
     5  C    0.179524  -0.694563   0.561443  -1.661749   0.488121  -0.363953
     6  O   -0.063194  -0.560421   0.566504  -0.151875  -0.009833  -0.009203
     7  N    7.851433  -0.035648   0.069446  -0.047394   0.054044  -0.021202
     8  C   -0.035648  24.247183  -4.408224   0.608510  -1.139828  -3.012671
     9  C    0.069446  -4.408224  18.746464  -8.072729  -2.557817  -4.513373
    10  C   -0.047394   0.608510  -8.072729  27.118989  -5.126191  -2.792713
    11  C    0.054044  -1.139828  -2.557817  -5.126191  19.113777   0.346537
    12  C   -0.021202  -3.012671  -4.513373  -2.792713   0.346537  27.240013
    13  C    0.072537  -6.831957   4.665975  -3.589851  -5.126790  -5.966180
    14  H    0.000008  -0.000047   0.000002  -0.000002   0.000000  -0.000000
    15  H    0.000010  -0.000010  -0.000043   0.000005   0.000000  -0.000000
    16  H    0.000012  -0.000016   0.000002  -0.000003   0.000000   0.000000
    17  H   -0.000043  -0.000749   0.000035   0.000066   0.000005   0.000001
    18  H   -0.000197  -0.000690  -0.000374   0.000220   0.000012   0.000001
    19  H    0.000282  -0.001383  -0.002258   0.000200   0.000092  -0.000015
    20  H   -0.000587  -0.000733  -0.000662   0.000184  -0.000015   0.000021
    21  H    0.030934   0.005500  -0.002906   0.003760   0.000510   0.000233
    22  H    0.155249   0.004092   0.073489  -0.106101   0.005249  -0.002090
    23  H   -0.015136  -0.001434   0.376170   0.017254  -0.021715  -0.053182
    24  H   -0.004314  -0.034524   0.021279   0.237976   0.095003  -0.036048
    25  C    0.002864  -2.505610  -0.493972   1.043584  -0.804278  -2.248383
    26  F   -0.001210   0.191093   0.046096   0.009122   0.006131   0.004078
    27  F    0.000342   0.031028   0.050821  -0.009712   0.045329  -0.091298
    28  F    0.000309   0.038871   0.060546  -0.009669   0.045384  -0.099485
    29  N   -0.000226   0.091725   0.025346  -0.076880   0.167499  -0.451459
    30  O    0.000034   0.074277   0.047647   0.199383   0.094880  -0.774506
    31  O   -0.000013  -0.023046   0.061118   0.082648   0.159049  -0.329690
    32  H    0.000565   0.022274   0.001347  -0.254517   0.301703   0.145078
    33  O    0.015125  -0.008532  -0.007582   0.007435  -0.003374   0.000911
    34  O   -0.008400  -0.175100  -0.001296   0.081056   0.065991  -0.000180
    35  C   -0.005604   0.046839  -0.017784   0.008531  -0.034785   0.000905
    36  C   -0.014781   0.014875  -0.004038  -0.017836  -0.008527   0.000941
    37  C    0.002984  -0.025930  -0.004298   0.012890   0.017206   0.000283
    38  H    0.000072  -0.000284  -0.000052   0.000268  -0.000028   0.000000
    39  H    0.000076  -0.000648  -0.000061   0.000553   0.000066   0.000003
    40  H    0.000014  -0.001502  -0.000122   0.000937   0.000601   0.000018
    41  H    0.000003   0.000098   0.000007  -0.000102  -0.000023   0.000001
    42  H   -0.000010   0.000001  -0.000020   0.000437  -0.000653  -0.000045
              13         14         15         16         17         18
     1  C    0.000085   0.449011   0.419287   0.421845  -0.033016  -0.033798
     2  C   -0.003405  -0.124214  -0.068579  -0.069338   0.425004   0.419116
     3  C   -0.026062   0.028248  -0.006085  -0.009303  -0.078128  -0.067896
     4  N    0.042397   0.000303   0.000177   0.000017   0.005383   0.005434
     5  C   -0.344418  -0.002334  -0.000924   0.000364  -0.003028  -0.008454
     6  O    0.118921   0.000005  -0.000045  -0.000037  -0.000153  -0.000199
     7  N    0.072537   0.000008   0.000010   0.000012  -0.000043  -0.000197
     8  C   -6.831957  -0.000047  -0.000010  -0.000016  -0.000749  -0.000690
     9  C    4.665975   0.000002  -0.000043   0.000002   0.000035  -0.000374
    10  C   -3.589851  -0.000002   0.000005  -0.000003   0.000066   0.000220
    11  C   -5.126790   0.000000   0.000000   0.000000   0.000005   0.000012
    12  C   -5.966180  -0.000000  -0.000000   0.000000   0.000001   0.000001
    13  C   23.657014  -0.000000  -0.000001   0.000001  -0.000002  -0.000019
    14  H   -0.000000   0.497180  -0.025073  -0.025298  -0.003218  -0.003258
    15  H   -0.000001  -0.025073   0.502958  -0.029875  -0.004612   0.003905
    16  H    0.000001  -0.025298  -0.029875   0.504198   0.003859  -0.004652
    17  H   -0.000002  -0.003218  -0.004612   0.003859   0.481266  -0.028111
    18  H   -0.000019  -0.003258   0.003905  -0.004652  -0.028111   0.489395
    19  H   -0.000382  -0.000068  -0.000365   0.003022   0.003903  -0.005437
    20  H    0.000061  -0.000063   0.002900  -0.000340  -0.005196   0.003926
    21  H   -0.001301  -0.000001  -0.000000   0.000000   0.000655   0.000603
    22  H    0.012318  -0.000000  -0.000000  -0.000000   0.000002   0.000002
    23  H   -0.040352   0.000000   0.000000  -0.000000  -0.000000  -0.000000
    24  H    0.021176   0.000000   0.000000   0.000000   0.000000   0.000000
    25  C   -0.543315  -0.000000  -0.000000  -0.000000  -0.000000  -0.000001
    26  F   -0.198572   0.000000  -0.000000   0.000000   0.000000  -0.000000
    27  F    0.053888  -0.000000  -0.000000  -0.000000  -0.000000   0.000000
    28  F    0.053372  -0.000000  -0.000000  -0.000000   0.000000  -0.000000
    29  N    0.201539   0.000000   0.000000   0.000000   0.000000   0.000000
    30  O    0.248133  -0.000000  -0.000000  -0.000000  -0.000000  -0.000000
    31  O   -0.287095  -0.000000  -0.000000   0.000000  -0.000000  -0.000000
    32  H    0.112376  -0.000000   0.000000   0.000000   0.000000   0.000000
    33  O   -0.001685  -0.000018  -0.000003  -0.000007  -0.001232  -0.000980
    34  O    0.001138  -0.000000   0.000000   0.000000  -0.000009  -0.000004
    35  C   -0.003439  -0.000046   0.000008  -0.000011  -0.000276   0.000087
    36  C   -0.004715   0.000022  -0.000000  -0.000003  -0.000077   0.000186
    37  C    0.000603  -0.000000  -0.000000   0.000000  -0.000009  -0.000013
    38  H   -0.000003  -0.000000  -0.000000  -0.000000  -0.000000   0.000000
    39  H   -0.000004  -0.000000   0.000000  -0.000000  -0.000000   0.000000
    40  H    0.000002   0.000000   0.000000  -0.000000  -0.000000   0.000000
    41  H    0.000000   0.000000  -0.000000  -0.000000  -0.000000  -0.000000
    42  H    0.000011   0.000000  -0.000000  -0.000000  -0.000000  -0.000000
              19         20         21         22         23         24
     1  C   -0.006230  -0.005151   0.001493   0.000223   0.000017  -0.000000
     2  C   -0.050083  -0.054190   0.000974   0.000140  -0.000042   0.000014
     3  C    0.447337   0.448648  -0.053097   0.009255   0.003279  -0.000126
     4  N   -0.055278  -0.055855   0.170308   0.032697   0.000896   0.000705
     5  C   -0.028127  -0.027711   0.023755  -0.010246   0.022853  -0.002768
     6  O    0.001286   0.001320   0.004008   0.003427   0.000848   0.000031
     7  N    0.000282  -0.000587   0.030934   0.155249  -0.015136  -0.004314
     8  C   -0.001383  -0.000733   0.005500   0.004092  -0.001434  -0.034524
     9  C   -0.002258  -0.000662  -0.002906   0.073489   0.376170   0.021279
    10  C    0.000200   0.000184   0.003760  -0.106101   0.017254   0.237976
    11  C    0.000092  -0.000015   0.000510   0.005249  -0.021715   0.095003
    12  C   -0.000015   0.000021   0.000233  -0.002090  -0.053182  -0.036048
    13  C   -0.000382   0.000061  -0.001301   0.012318  -0.040352   0.021176
    14  H   -0.000068  -0.000063  -0.000001  -0.000000   0.000000   0.000000
    15  H   -0.000365   0.002900  -0.000000  -0.000000   0.000000   0.000000
    16  H    0.003022  -0.000340   0.000000  -0.000000  -0.000000   0.000000
    17  H    0.003903  -0.005196   0.000655   0.000002  -0.000000   0.000000
    18  H   -0.005437   0.003926   0.000603   0.000002  -0.000000   0.000000
    19  H    0.520080  -0.041483   0.001607   0.000005  -0.000001   0.000000
    20  H   -0.041483   0.517760   0.001640   0.000005  -0.000001   0.000000
    21  H    0.001607   0.001640   0.255843   0.004436  -0.000001   0.000004
    22  H    0.000005   0.000005   0.004436   0.258750  -0.000085   0.004864
    23  H   -0.000001  -0.000001  -0.000001  -0.000085   0.394337  -0.000098
    24  H    0.000000   0.000000   0.000004   0.004864  -0.000098   0.425213
    25  C   -0.000037  -0.000007  -0.000078   0.000980   0.000424   0.004881
    26  F   -0.000000   0.000000   0.000000  -0.000001   0.008551   0.000000
    27  F   -0.000000   0.000000  -0.000000  -0.000000  -0.000001   0.000001
    28  F    0.000000  -0.000000  -0.000000   0.000000  -0.000010   0.000001
    29  N    0.000000   0.000000   0.000000  -0.000026  -0.000015  -0.000205
    30  O   -0.000000  -0.000000  -0.000000   0.000002   0.000043   0.000018
    31  O   -0.000000  -0.000000  -0.000000  -0.000000  -0.000086   0.000052
    32  H   -0.000000  -0.000000   0.000000  -0.000008   0.000008  -0.003627
    33  O   -0.000054  -0.000049   0.053957   0.001605   0.000001   0.000009
    34  O   -0.000002  -0.000006  -0.000636   0.049617   0.000003  -0.001711
    35  C    0.000203   0.000322  -0.005181  -0.005476  -0.000022  -0.000600
    36  C    0.000017   0.000039   0.006897   0.007014  -0.000001   0.000990
    37  C    0.000001  -0.000001  -0.001130  -0.000853  -0.000000  -0.000133
    38  H   -0.000000  -0.000000  -0.000001  -0.000007   0.000000   0.000000
    39  H   -0.000000  -0.000000  -0.000002  -0.000008   0.000000  -0.000000
    40  H   -0.000000   0.000000   0.000000  -0.000002   0.000000  -0.000001
    41  H   -0.000000  -0.000000   0.000000   0.000000  -0.000000   0.000000
    42  H    0.000000   0.000000   0.000000  -0.000002   0.000000   0.000000
              25         26         27         28         29         30
     1  C   -0.000113  -0.000000   0.000000   0.000000   0.000001   0.000000
     2  C    0.000263   0.000004  -0.000001  -0.000001  -0.000001  -0.000000
     3  C   -0.009496   0.000050   0.000027   0.000035   0.000238   0.000009
     4  N    0.005207  -0.000011   0.000009   0.000009  -0.000050   0.000005
     5  C   -0.222196   0.002739   0.002895   0.003452   0.009607   0.001713
     6  O    0.009059  -0.000579  -0.000002   0.000018   0.000050   0.000001
     7  N    0.002864  -0.001210   0.000342   0.000309  -0.000226   0.000034
     8  C   -2.505610   0.191093   0.031028   0.038871   0.091725   0.074277
     9  C   -0.493972   0.046096   0.050821   0.060546   0.025346   0.047647
    10  C    1.043584   0.009122  -0.009712  -0.009669  -0.076880   0.199383
    11  C   -0.804278   0.006131   0.045329   0.045384   0.167499   0.094880
    12  C   -2.248383   0.004078  -0.091298  -0.099485  -0.451459  -0.774506
    13  C   -0.543315  -0.198572   0.053888   0.053372   0.201539   0.248133
    14  H   -0.000000   0.000000  -0.000000  -0.000000   0.000000  -0.000000
    15  H   -0.000000  -0.000000  -0.000000  -0.000000   0.000000  -0.000000
    16  H   -0.000000   0.000000  -0.000000  -0.000000   0.000000  -0.000000
    17  H   -0.000000   0.000000  -0.000000   0.000000   0.000000  -0.000000
    18  H   -0.000001  -0.000000   0.000000  -0.000000   0.000000  -0.000000
    19  H   -0.000037  -0.000000  -0.000000   0.000000   0.000000  -0.000000
    20  H   -0.000007   0.000000   0.000000  -0.000000   0.000000  -0.000000
    21  H   -0.000078   0.000000  -0.000000  -0.000000   0.000000  -0.000000
    22  H    0.000980  -0.000001  -0.000000   0.000000  -0.000026   0.000002
    23  H    0.000424   0.008551  -0.000001  -0.000010  -0.000015   0.000043
    24  H    0.004881   0.000000   0.000001   0.000001  -0.000205   0.000018
    25  C   10.088960   0.067561   0.061067   0.052322  -0.429554   0.010590
    26  F    0.067561   9.273559  -0.037234  -0.037448   0.001365   0.000051
    27  F    0.061067  -0.037234   9.228548  -0.044099   0.000222  -0.001844
    28  F    0.052322  -0.037448  -0.044099   9.227946   0.000145  -0.001840
    29  N   -0.429554   0.001365   0.000222   0.000145   7.272018   0.327846
    30  O    0.010590   0.000051  -0.001844  -0.001840   0.327846   7.885624
    31  O    0.286772   0.000677  -0.023873  -0.023543   0.278181  -0.097043
    32  H   -0.000310   0.000007  -0.000010  -0.000012  -0.041169   0.019377
    33  O   -0.000090  -0.000000  -0.000000  -0.000000   0.000000  -0.000000
    34  O    0.000218   0.000000   0.000000   0.000000   0.000025   0.000001
    35  C   -0.000848   0.000005   0.000001   0.000001   0.000025   0.000002
    36  C   -0.000329   0.000000   0.000000   0.000000  -0.000015   0.000002
    37  C    0.000063  -0.000000   0.000000   0.000000   0.000008  -0.000002
    38  H   -0.000000  -0.000000  -0.000000  -0.000000  -0.000000  -0.000000
    39  H   -0.000000  -0.000000  -0.000000  -0.000000  -0.000000  -0.000000
    40  H    0.000000  -0.000000   0.000000  -0.000000  -0.000000   0.000000
    41  H    0.000000   0.000000   0.000000   0.000000  -0.000000   0.000000
    42  H    0.000000  -0.000000   0.000000   0.000000   0.000000  -0.000000
              31         32         33         34         35         36
     1  C   -0.000000   0.000000   0.006527  -0.000084  -0.002725   0.002744
     2  C    0.000000   0.000000   0.012295  -0.000996  -0.003213  -0.001025
     3  C   -0.000012   0.000033  -0.011659   0.009398  -0.000839   0.019568
     4  N    0.000001   0.000010  -0.031864   0.008111  -0.006159  -0.011276
     5  C   -0.001489   0.004265  -0.000161   0.032007  -0.016828  -0.011476
     6  O    0.000017   0.000001  -0.000293  -0.000094  -0.000908  -0.000629
     7  N   -0.000013   0.000565   0.015125  -0.008400  -0.005604  -0.014781
     8  C   -0.023046   0.022274  -0.008532  -0.175100   0.046839   0.014875
     9  C    0.061118   0.001347  -0.007582  -0.001296  -0.017784  -0.004038
    10  C    0.082648  -0.254517   0.007435   0.081056   0.008531  -0.017836
    11  C    0.159049   0.301703  -0.003374   0.065991  -0.034785  -0.008527
    12  C   -0.329690   0.145078   0.000911  -0.000180   0.000905   0.000941
    13  C   -0.287095   0.112376  -0.001685   0.001138  -0.003439  -0.004715
    14  H   -0.000000  -0.000000  -0.000018  -0.000000  -0.000046   0.000022
    15  H   -0.000000   0.000000  -0.000003   0.000000   0.000008  -0.000000
    16  H    0.000000   0.000000  -0.000007   0.000000  -0.000011  -0.000003
    17  H   -0.000000   0.000000  -0.001232  -0.000009  -0.000276  -0.000077
    18  H   -0.000000   0.000000  -0.000980  -0.000004   0.000087   0.000186
    19  H   -0.000000  -0.000000  -0.000054  -0.000002   0.000203   0.000017
    20  H   -0.000000  -0.000000  -0.000049  -0.000006   0.000322   0.000039
    21  H   -0.000000   0.000000   0.053957  -0.000636  -0.005181   0.006897
    22  H   -0.000000  -0.000008   0.001605   0.049617  -0.005476   0.007014
    23  H   -0.000086   0.000008   0.000001   0.000003  -0.000022  -0.000001
    24  H    0.000052  -0.003627   0.000009  -0.001711  -0.000600   0.000990
    25  C    0.286772  -0.000310  -0.000090   0.000218  -0.000848  -0.000329
    26  F    0.000677   0.000007  -0.000000   0.000000   0.000005   0.000000
    27  F   -0.023873  -0.000010  -0.000000   0.000000   0.000001   0.000000
    28  F   -0.023543  -0.000012  -0.000000   0.000000   0.000001   0.000000
    29  N    0.278181  -0.041169   0.000000   0.000025   0.000025  -0.000015
    30  O   -0.097043   0.019377  -0.000000   0.000001   0.000002   0.000002
    31  O    7.946820  -0.002370  -0.000000   0.000000   0.000002  -0.000001
    32  H   -0.002370   0.426218   0.000000  -0.000025  -0.000038   0.000004
    33  O   -0.000000   0.000000   8.623109  -0.196329   0.506772  -0.253801
    34  O    0.000000  -0.000025  -0.196329   8.592842   0.278772  -0.153759
    35  C    0.000002  -0.000038   0.506772   0.278772   5.436630  -0.653458
    36  C   -0.000001   0.000004  -0.253801  -0.153759  -0.653458   7.141950
    37  C    0.000001  -0.000002   0.023511   0.058068  -0.015944  -0.265955
    38  H   -0.000000   0.000000  -0.002022   0.001417  -0.066670   0.432745
    39  H   -0.000000  -0.000000  -0.002313   0.001628  -0.065762   0.433214
    40  H   -0.000000  -0.000000  -0.000039  -0.004394  -0.006774  -0.049039
    41  H   -0.000000  -0.000000  -0.000133   0.001753   0.030152  -0.080454
    42  H    0.000000   0.000000  -0.000002  -0.004631  -0.001761  -0.055129
[...]
 77975,-0.22936791,0.00251124,0.00094016,0.00336349,0.12780117,0.045655
 96,0.24693901,0.00000494,0.00000613,0.00000136,-0.00000737,-0.00001301
 ,-0.00000081,0.00001536,-0.00000644,0.00001047,0.00008727,0.00009315,0
 .00001694,-0.00023419,-0.00001445,0.00001740,0.00005815,0.00000700,-0.
 00001217,0.00007374,-0.00023483,-0.00001166,-0.00002589,-0.00002961,0.
 00000288,0.00000741,0.00000347,-0.00000149,0.00001761,0.00002240,-0.00
 001477,-0.00000437,-0.00000476,-0.00000279,0.00000546,-0.00000298,-0.0
 0000067,-0.00001384,-0.00001356,-0.00000037,-0.00000330,0.00000007,0.0
 0000052,-0.00000237,0.00000179,-0.00000173,-0.00000150,-0.00000065,0.0
 0000009,0.00000723,0.00000214,0.00000146,0.00000947,0.00000524,-0.0000
 0184,-0.00000119,0.00000013,0.00000166,0.00000005,0.00000270,-0.000004
 24,-0.00002418,-0.00018257,-0.00006510,-0.00002524,0.00032181,-0.00001
 755,-0.00000552,-0.00000147,0.00000292,0.00001063,0.00002823,0.0000279
 2,-0.00000228,0.00003116,0.00001727,0.00000423,-0.00001033,-0.00000145
 ,0.00000055,-0.00000658,-0.00000302,-0.00000263,-0.00001130,-0.0000119
 7,0.00000239,0.00002593,0.00001980,0.00000519,-0.00001495,-0.00001001,
 -0.00000969,-0.00001872,-0.00001338,0.00000669,0.00000644,0.00000815,0
 .00044004,0.00163269,-0.00075048,0.00047709,-0.00195735,-0.00096944,-0
 .00409773,-0.00165810,0.00271740,-0.12076765,-0.04992197,0.10969692,-0
 .01573329,-0.01051189,0.02297623,0.00938216,0.00704832,-0.01345801,0.1
 3330614,0.00000102,0.00000399,-0.00000317,0.00001314,-0.00001767,0.000
 01778,-0.00006230,0.00003906,0.00000976,0.00008323,0.00001271,0.000035
 36,-0.00029237,0.00012717,0.00004291,0.00008537,-0.00016055,-0.0000379
 4,-0.00007878,-0.00076268,0.00007185,0.00031913,0.00002265,-0.00000469
 ,-0.00007414,-0.00006092,-0.00000961,-0.00010970,0.00009745,0.00001598
 ,0.00006067,0.00000645,0.00000198,-0.00010352,-0.00003280,0.00000192,0
 .00002992,-0.00003175,-0.00001273,0.00001022,-0.00000054,0.00000336,-0
 .00000076,0.00000266,-0.00000277,0.00000214,-0.00000520,-0.00000082,-0
 .00000714,0.00000141,-0.00000693,-0.00000659,-0.00000084,-0.00000197,0
 .00000864,-0.00001182,-0.00000479,0.00001574,-0.00000526,-0.00000001,-
 0.00004714,0.00008753,-0.00011831,-0.00000085,0.00122127,-0.00019412,0
 .00000354,0.00000467,0.00000418,0.00010400,0.00001348,0.00000396,0.000
 01942,0.00007281,0.00001165,0.00000018,-0.00002139,0.00000034,-0.00001
 355,-0.00002003,0.00000851,-0.00000869,-0.00002354,-0.00001738,0.00013
 492,0.00001166,0.00000755,-0.00005366,0.00002467,0.00000770,-0.0000430
 9,-0.00003538,-0.00001641,-0.00000451,-0.00000325,0.00000057,0.0013859
 5,0.00073174,-0.00369741,-0.00164556,-0.00601593,-0.00440757,-0.017878
 00,-0.00944718,0.03025316,-0.05003355,-0.08147056,0.07787785,0.0094124
 6,0.00562120,-0.01358529,0.00402319,0.00231203,-0.00556820,0.05291862,
 0.08796429,0.00000155,0.00000140,0.00000429,-0.00001049,0.00000691,-0.
 00001787,0.00005329,-0.00001786,-0.00000596,-0.00004250,0.00005154,0.0
 0002362,0.00008918,-0.00004856,-0.00001324,-0.00002477,0.00004856,0.00
 000479,-0.00000274,0.00009886,0.00005171,-0.00003823,0.00000273,-0.000
 00083,0.00000809,0.00001188,0.00000025,0.00001154,-0.00002146,0.000001
 38,-0.00001571,-0.00000448,-0.00000034,0.00002376,0.00000915,-0.000000
 18,-0.00000104,0.00001528,0.00000229,-0.00001356,0.00000040,-0.0000020
 5,0.00000133,-0.00000470,0.00000295,-0.00000073,0.00000085,-0.00000078
 ,0.00000957,0.00000637,-0.00000608,0.00000701,0.00000489,0.00001610,-0
 .00000934,0.00000421,0.00000348,-0.00001036,-0.00000106,-0.00000006,0.
 00000262,-0.00006176,-0.00001952,-0.00001265,-0.00013745,-0.00009165,0
 .00000190,-0.00000152,-0.00000238,-0.00001537,-0.00001061,-0.00000745,
 -0.00000869,-0.00004979,-0.00000920,-0.00000276,0.00001542,-0.00000029
 ,0.00000599,0.00001275,-0.00000240,0.00000524,0.00001643,0.00001151,-0
 .00004574,-0.00002335,-0.00001369,0.00001453,0.00000326,0.00000312,0.0
 0002036,0.00002379,0.00001230,-0.00000474,-0.00000298,-0.00000179,-0.0
 0142676,0.00077219,0.00079032,-0.00098405,-0.00017704,-0.00082260,-0.0
 0080077,-0.00411687,0.00330641,0.10850328,0.07505873,-0.20270030,-0.00
 054486,-0.00048155,0.00024290,0.01469706,0.01083943,-0.02186988,-0.119
 62745,-0.08071665,0.21896080,0.00000266,0.00000045,-0.00000299,0.00000
 039,-0.00000457,0.00001504,0.00000404,-0.00000320,0.00000619,0.0000230
 3,0.00008987,-0.00002206,-0.00006279,-0.00002134,0.00001900,0.00001652
 ,0.00002851,-0.00000742,-0.00000831,-0.00000518,-0.00002058,0.00003036
 ,0.00000563,0.00000393,-0.00000732,0.00000388,-0.00000124,-0.00002028,
 -0.00000763,-0.00000265,0.00001119,-0.00000127,-0.00000503,-0.00000595
 ,-0.00000118,0.00000238,0.00000581,0.00000713,-0.00000262,0.00000247,-
 0.00000126,0.00000209,-0.00000290,0.00000606,-0.00000312,-0.00000060,-
 0.00000013,0.00000062,-0.00000145,-0.00000595,0.00000551,0.00000211,-0
 .00000233,-0.00001461,-0.00000072,0.00000138,-0.00000032,-0.00000054,0
 .00000900,-0.00000265,-0.00000526,-0.00013138,0.00000683,0.00000878,0.
 00001059,0.00002088,0.00000006,0.00000061,0.00000317,0.00002182,-0.000
 00629,0.00000927,-0.00000258,-0.00001779,0.00001332,-0.00000293,0.0000
 0715,-0.00000388,0.00000409,0.00000533,-0.00000599,0.00000040,0.000003
 91,-0.00000265,-0.00000017,-0.00001229,-0.00000422,-0.00000181,0.00000
 912,0.00000011,0.00000414,0.00000849,0.00000375,-0.00000778,-0.0000092
 8,-0.00000061,0.00053907,0.00050492,-0.00026571,0.00133678,0.00053146,
 -0.00046083,-0.00113053,-0.00196899,0.00013304,-0.01648718,-0.01059036
 ,0.02447356,-0.12222547,-0.05063956,0.11057402,0.00090861,-0.00077729,
 -0.00035339,-0.00503164,0.00347453,-0.00026927,0.13477981,0.00000149,-
 0.00000145,0.00000029,-0.00000338,0.00000201,0.00000080,0.00003314,-0.
 00001753,-0.00000165,-0.00002220,0.00004676,0.00000601,0.00006920,-0.0
 0007178,-0.00001132,-0.00001950,0.00007405,0.00000677,0.00004735,0.000
 19551,0.00000759,-0.00009096,-0.00000184,0.00001440,0.00001892,0.00002
 490,-0.00000401,0.00002738,-0.00005421,-0.00000245,-0.00003877,-0.0000
 0340,0.00000376,0.00005520,0.00002024,-0.00000625,-0.00000845,0.000021
 61,0.00000935,-0.00000424,-0.00000080,0.00000017,-0.00000072,0.0000018
 7,-0.00000088,-0.00000117,0.00000153,0.00000073,0.00000467,-0.00000119
 ,0.00000296,0.00000326,-0.00000033,-0.00000287,-0.00000591,0.00000523,
 0.00000287,-0.00000548,0.00000514,-0.00000205,0.00001284,-0.00009163,-
 0.00000509,-0.00003191,-0.00032564,-0.00001454,-0.00000025,-0.00000111
 ,-0.00000145,-0.00003777,-0.00002653,-0.00003336,-0.00002066,-0.000055
 62,0.00000080,0.00000041,0.00001582,-0.00000188,0.00001322,0.00001558,
 -0.00000899,0.00000726,0.00001727,0.00000937,-0.00009524,-0.00000120,0
 .00000031,0.00004202,-0.00001823,-0.00000811,0.00003101,0.00001968,0.0
 0000772,-0.00000501,0.,0.00000097,-0.00053310,0.00020094,0.00020228,-0
 .00004481,0.00002685,-0.00003432,0.00086472,0.00031791,-0.00084079,0.0
 0818569,0.00576220,-0.01293161,-0.05184153,-0.08147702,0.07591982,-0.0
 0081094,0.00050584,0.00019155,0.00308679,-0.00121036,-0.00043754,0.053
 67398,0.08499675,-0.00000275,-0.00000334,0.00000053,-0.00000137,0.0000
 1242,-0.00000416,0.00002053,-0.00001015,-0.00000438,-0.00009070,-0.000
 06990,0.00001051,0.00019369,-0.00004184,-0.00001487,-0.00005041,0.0000
 1959,0.00000807,-0.00011658,0.00008504,0.00001524,0.00012240,0.0000487
 0,-0.00000105,-0.00003384,-0.00000849,-0.00000064,-0.00006233,-0.00002
 880,0.00001755,0.00001253,0.00000393,0.00000969,-0.00001230,0.00000721
 ,-0.00000546,0.00002902,0.00002719,0.00000435,-0.00000466,0.00000043,-
 0.00000059,0.00000144,-0.00000191,0.00000247,0.00000057,0.00000050,-0.
 00000131,0.00000146,0.00000105,-0.00000225,0.,-0.00000126,0.00000528,-
 0.00000555,0.00000295,0.00000041,-0.00000475,-0.00000039,0.00000167,0.
 00002282,0.00006821,-0.00000593,-0.00001761,-0.00012966,-0.00002673,0.
 00000932,0.00000310,-0.00000229,0.00001077,-0.00009708,-0.00005520,-0.
 00000516,-0.00007637,-0.00001467,-0.00000881,0.00002551,-0.00000172,0.
 00000589,0.00001831,-0.00000221,0.00000626,0.00002479,0.00001752,-0.00
 001965,-0.00005031,-0.00003281,-0.00000174,0.00002811,0.00001337,0.000
 02395,0.00003821,0.00002392,-0.00002195,-0.00001807,-0.00001082,-0.000
 63515,-0.00050830,-0.00009761,-0.00165409,0.00006424,0.00069281,0.0020
 2177,0.00156957,0.00006410,-0.00023434,-0.00053163,-0.00022690,0.11123
 557,0.07403868,-0.21338151,0.00018443,-0.00045222,0.00069242,-0.000004
 08,-0.00009717,0.00147778,-0.12188556,-0.08269678,0.22751437,0.0000088
 3,0.00000490,0.00000019,-0.00001224,-0.00000890,-0.00000009,0.00006176
 ,-0.00001713,-0.00000164,0.00012796,0.00037589,0.00002068,-0.00028485,
 -0.00005182,-0.00000081,0.00007419,0.00010346,0.00000511,0.00015458,0.
 00002302,0.00000103,-0.00017047,-0.00005290,-0.00000081,0.00004372,0.0
 0003111,0.00000154,0.00006653,-0.00000107,-0.00000263,-0.00001543,-0.0
 0000926,-0.00000220,0.00003722,0.00000336,0.00000276,-0.00002970,-0.00
 000824,0.00000070,-0.00000602,-0.00000148,-0.00000007,-0.00000443,0.00
 000512,-0.00000197,-0.00000438,0.00000471,0.00000259,0.00001070,-0.000
 00618,0.00001661,0.00001099,-0.00000378,-0.00001774,-0.00000913,0.0000
 1292,0.00000588,-0.00000935,0.00001391,-0.00000393,-0.00005301,-0.0005
 5773,-0.00003118,-0.00001674,-0.00006796,-0.00000573,-0.00001054,-0.00
 000472,-0.00000030,-0.00002638,0.00004838,0.00000655,-0.00000184,0.000
 01842,0.00000011,0.00000449,-0.00000664,0.00000126,-0.00000104,-0.0000
 0413,0.00000024,-0.00000084,-0.00000536,-0.00000192,-0.00001908,0.0000
 0702,0.00000514,0.00000719,-0.00001304,-0.00000396,-0.00000078,-0.0000
 0132,-0.00000245,0.00001332,0.00000710,0.00000032,-0.00093395,0.003650
 51,0.00038144,0.00212453,-0.00025360,-0.00003774,-0.00683001,-0.002744
 90,-0.00027262,0.00452420,0.03295790,0.00362249,-0.05185423,-0.0306466
 5,-0.00348880,0.00116488,-0.00072589,-0.00042894,0.00115205,-0.0008013
 7,0.00027416,-0.00239960,-0.01638394,-0.00387190,0.05550317,-0.0000127
 1,-0.00000241,-0.00000014,0.00001587,0.00000695,-0.00000049,-0.0001206
 2,0.00005352,0.00000450,-0.00005453,-0.00040805,-0.00002395,0.00011203
 ,0.00023467,0.00001425,-0.00002423,-0.00026232,-0.00001585,-0.00022431
 ,-0.00039195,-0.00002277,0.00030944,0.00004400,-0.00000319,-0.00007391
 ,-0.00008170,-0.00000239,-0.00010530,0.00009552,0.00000552,0.00007856,
 0.00002352,0.00000916,-0.00013910,-0.00004209,0.00000141,0.00004083,-0
 .00004509,-0.00001296,0.00001274,0.00000501,0.00000014,0.00000680,-0.0
 0001039,0.00000547,0.00000683,-0.00000920,-0.00000655,-0.00001771,0.00
 000911,-0.00002500,-0.00001778,0.00000531,0.00002650,0.00001895,-0.000
 02307,-0.00001309,0.00001883,-0.00002486,0.00000933,-0.00001226,0.0006
 8461,0.00004209,0.00010228,0.00071568,0.00004515,0.00000920,0.00000704
 ,0.00000259,0.00008401,0.00005651,0.00000947,0.00004804,0.00012940,0.0
 0000218,-0.00000206,-0.00003726,0.00000380,-0.00002901,-0.00003628,0.0
 0001970,-0.00001707,-0.00004078,-0.00002362,0.00021594,0.00002988,0.00
 001314,-0.00008747,0.00003090,0.00001187,-0.00007249,-0.00005998,-0.00
 002606,0.00000763,0.00000335,-0.00000080,0.00174873,-0.00262721,-0.000
 28180,0.00067135,-0.00127895,-0.00019834,0.00109843,0.00275462,0.00023
 660,-0.00391077,-0.01319173,-0.00135193,-0.02994647,-0.30715385,-0.028
 44201,0.00008919,0.00033081,0.00054055,0.00013334,0.00049726,-0.000443
 01,-0.00112790,-0.01042625,-0.00153085,0.03189139,0.33495066,-0.000001
 47,-0.00000032,-0.00000064,0.00000177,0.00000090,0.00000438,-0.0000138
 7,0.00000629,0.00000116,-0.00000628,-0.00004679,-0.00000041,0.00001307
 ,0.00002782,-0.00000199,-0.00000268,-0.00003062,-0.00000070,-0.0000250
 5,-0.00004497,0.00000932,0.00003504,0.00000557,-0.00000361,-0.00000826
 ,-0.00000960,-0.00000038,-0.00001147,0.00000947,0.00001372,0.00000807,
 0.00000238,0.00000795,-0.00001561,-0.00000468,-0.00000231,0.00000456,-
 0.00000546,-0.00000022,0.00000142,0.00000053,0.00000103,0.00000083,-0.
 00000031,0.00000030,0.00000073,-0.00000190,-0.00000136,-0.00000156,0.0
 0000121,-0.00000397,-0.00000254,0.00000045,0.00000207,0.00000178,-0.00
 000299,-0.00000192,0.00000238,-0.00000245,0.00000090,-0.00000115,0.000
 07778,0.00000354,0.00001192,0.00008232,-0.00000668,0.00000102,0.000000
 84,-0.00000019,0.00000892,0.00000957,-0.00003774,0.00000584,0.00001631
 ,-0.00000083,-0.00000006,-0.00000476,0.00000064,-0.00000363,-0.0000045
 2,0.00000264,-0.00000209,-0.00000514,-0.00000260,0.00002514,0.00000411
 ,0.00000074,-0.00001006,0.00000304,0.00000205,-0.00000862,-0.00000698,
 -0.00000299,0.00000144,0.00000093,-0.00000423,0.00018502,-0.00029590,-
 0.00000479,0.00004303,-0.00015671,0.00063294,0.00013777,0.00027687,0.0
 0064196,-0.00040235,-0.00130104,-0.00119364,-0.00345312,-0.02847398,-0
 .05371585,0.00019698,0.00036333,0.00011468,-0.00017871,-0.00027131,-0.
 00007324,0.00164184,0.02593071,0.00426014,0.00366953,0.03186608,0.0510
 7887,0.00000291,0.00000033,0.00000324,0.00000016,-0.00000324,-0.000016
 17,0.00000468,-0.00000300,-0.00000653,0.00002438,0.00008581,0.00003187
 ,-0.00006515,-0.00002150,-0.00001894,0.00001713,0.00002850,0.00001005,
 -0.00000135,-0.00000646,0.00001737,0.00002053,0.00000415,-0.00000217,-
 0.00000476,0.00000567,0.00000093,-0.00001637,-0.00000899,0.00000553,0.
 00000913,-0.00000312,0.00000513,-0.00000247,-0.00000013,-0.00000398,0.
 00000367,0.00000667,0.00000267,0.00000224,-0.00000104,-0.00000241,-0.0
 0000067,-0.00000012,-0.00000073,-0.00000296,0.00000570,0.00000406,0.00
 000227,-0.00000434,0.00001422,-0.00000092,-0.00000474,-0.00000591,-0.0
 0000041,0.00000845,0.00000415,-0.00000089,0.00000129,0.00000030,-0.000
 00493,-0.00012572,-0.00002184,0.00000830,0.00001385,-0.00001598,-0.000
 00039,0.00000031,-0.00000263,0.00002086,-0.00000332,-0.00001392,-0.000
 00374,-0.00001660,-0.00001248,-0.00000021,0.00000489,0.00000176,0.0000
 0051,0.00000362,0.00000179,0.00000242,0.00000693,0.00000845,-0.0000039
 2,-0.00002051,-0.00001310,-0.00000275,0.00001097,0.00000512,0.00000706
 ,0.00001363,0.00000936,-0.00000712,-0.00000890,-0.00000183,0.00052612,
 0.00044932,0.00037414,0.00140035,0.00001712,0.00071453,-0.00112819,-0.
 00189064,-0.00053537,-0.01636216,-0.00501290,-0.02625070,-0.12158662,-
 0.02483535,-0.11859134,-0.00503783,0.00334931,0.00098158,0.00092003,-0
 .00084078,0.00018207,0.00970366,0.00382737,0.01484283,-0.00239625,-0.0
 0072470,-0.00184951,0.13395364,0.00000085,-0.00000192,-0.00000069,-0.0
 0000359,0.00000457,0.00000132,0.00003547,-0.00001854,-0.00000013,-0.00
 003832,0.00003300,-0.00000461,0.00010373,-0.00007326,0.00000346,-0.000
 02844,0.00007397,0.00000102,0.00002370,0.00021074,0.00001615,-0.000064
 01,0.00001070,-0.00000715,0.00001249,0.00002247,0.00000301,0.00001330,
 -0.00005566,-0.00000721,-0.00003166,-0.00000034,-0.00001095,0.00004822
 ,0.00001923,0.00000403,-0.00000232,0.00002533,0.00000060,-0.00000493,-
 0.00000062,-0.00000004,-0.00000102,0.00000166,-0.00000022,-0.00000033,
 0.00000116,0.00000038,0.00000291,-0.00000088,0.00000140,0.00000466,-0.
 00000053,-0.00000262,-0.00000615,0.00000447,0.00000219,-0.00000683,0.0
 0000601,-0.00000179,0.00001640,-0.00007950,-0.00000355,-0.00003779,-0.
 00035249,-0.00002288,0.00000136,-0.00000046,0.00000038,-0.00003683,-0.
 00005081,0.00003015,-0.00001912,-0.00006500,0.00000178,-0.00000184,0.0
 0001945,-0.00000273,0.00001327,0.00001775,-0.00000938,0.00000753,0.000
 01995,0.00001034,-0.00009002,-0.00000985,-0.00000510,0.00003779,-0.000
 01158,-0.00000530,0.00003255,0.00002453,0.00001134,-0.00000898,-0.0000
 0389,0.00000306,-0.00065104,0.00012834,-0.00015860,-0.00084185,-0.0002
 5928,-0.00099844,0.00130866,0.00043982,0.00094018,0.00791986,0.0025918
 7,0.01362365,-0.02580045,-0.05586289,-0.04043831,0.00299048,-0.0011745
 1,-0.00014225,-0.00076201,0.00046150,-0.00024681,0.00695320,0.00150843
 ,0.01026680,-0.01678109,-0.00451492,-0.02801607,0.02569220,0.05691201,
 0.00000301,0.00000288,0.00000104,0.00000058,-0.00001092,-0.00000694,-0
 .00001336,0.00000718,-0.00000410,0.00008412,0.00007661,0.00002093,-0.0
 0017497,0.00002872,-0.00000821,0.00004554,-0.00000531,0.00000606,0.000
 12542,-0.00004227,0.00001158,-0.00014066,-0.00004717,-0.00000832,0.000
 03826,0.00001337,0.00000309,0.00006775,0.00001517,0.00001680,-0.000021
 12,-0.00000541,0.00000720,0.00002423,-0.00000302,0.00000112,-0.0000313
 3,-0.00002284,-0.00000015,0.00000364,-0.00000046,-0.00000086,-0.000000
 67,-0.00000031,-0.00000121,-0.00000168,0.00000210,0.00000295,0.0000007
 9,0.00000043,0.00000613,-0.00000055,-0.00000105,-0.00000254,0.00000349
 ,0.00000149,0.00000235,0.00000406,-0.00000213,-0.00000021,-0.00001916,
 -0.00008468,-0.00001693,0.00000941,0.00005655,-0.00002210,-0.00000929,
 -0.00000328,-0.00000284,-0.00001954,0.00009540,-0.00002752,0.00000256,
 0.00006688,-0.00001496,0.00001078,-0.00002440,0.00000719,-0.00000862,-
 0.00001734,0.00001029,-0.00000285,-0.00001829,-0.00000316,0.00000210,0
 .00003571,0.00001505,0.00000527,-0.00002702,-0.00000189,-0.00001440,-0
 .00002459,-0.00001253,0.00002174,0.00001913,-0.00000751,0.00049686,0.0
 0056438,-0.00003061,0.00167137,-0.00094546,0.00032994,-0.00176700,-0.0
 0148438,-0.00005390,0.00202478,0.00112468,0.00286616,-0.11942673,-0.03
 870630,-0.23973114,0.00065608,-0.00047847,0.00147626,-0.00035618,0.000
 39885,0.00074577,-0.01359714,-0.00527330,-0.02093909,0.00015908,-0.000
 44473,-0.00171877,0.13014436,0.04516359,0.25708559\\-0.00000249,0.0000
 0138,-0.00000403,0.00000154,-0.00000213,-0.00000522,0.00000154,0.00000
 136,-0.00000207,0.00000193,-0.00000631,0.00000345,0.00000572,-0.000025
 76,-0.00000556,0.00000583,0.00001806,0.00000396,-0.00000799,-0.0000079
 1,-0.00000098,-0.00000611,-0.00000884,-0.00000781,0.00000909,0.0000198
 2,0.00000398,-0.00000258,0.00000031,0.00000500,-0.00000205,0.00000386,
 0.00000344,0.00002929,-0.00000762,-0.00000187,-0.00001551,-0.00000118,
 0.00000027,0.00000032,0.00000136,-0.00000468,0.00000101,-0.00000093,-0
 .00000459,-0.00000097,0.00000111,-0.00000629,0.00000079,0.00000072,-0.
 00000179,-0.00000157,0.00000085,-0.00000381,-0.00000020,-0.00000044,-0
 .00000618,-0.00000074,-0.00000156,-0.00000502,-0.00000005,0.00002220,-
 0.00000507,0.00000477,0.00000209,-0.00000242,-0.00000333,-0.00000225,0
 .00000050,-0.00000024,0.00000014,0.00000273,0.00001621,0.00000116,-0.0
 0000281,-0.00000265,-0.00000192,-0.00000293,-0.00000989,-0.00000050,0.
 00001064,-0.00000106,-0.00000086,-0.00000360,-0.00003838,-0.00003138,0
 .00000239,0.00000190,0.00000276,0.00000146,0.00001341,0.00002320,0.000
 01124,0.00000369,0.,0.00000391,0.00000385,-0.00000950,0.00000114,-0.00
 000307,0.00000139,0.00000809,-0.00000094,0.00000620,0.00000233,-0.0000
 0213,0.00000045,-0.00000482,0.00000038,-0.00000010,0.00000204,0.000000
 45,-0.00000083,0.00000332,0.00000065,0.00000241,0.00000111,-0.00000057
 ,-0.00000065,0.00000420,0.00000102,-0.00000009,0.00000319,-0.00000087,
 -0.00000006,0.00000315\\\@


 IF AT FIRST YOU DON'T SUCCEED, TRY LOOKING IN 
 THE WASTEBASKET FOR THE DIRECTIONS.
 Job cpu time:       0 days  8 hours 23 minutes 14.9 seconds.
 File lengths (MBytes):  RWF=   1340 Int=      0 D2E=      0 Chk=     32 Scr=      1
 Normal termination of Gaussian 09 at Tue Feb 19 15:14:21 2019.
WARNING: pbs_rusage is deprecated and values produced may not be accurate


=============================================================================
                                     Resource usage:
                                       CPU time:              44:36:10
   JobId:    5874942.r-man2            Elapsed time:          05:37:19
   Project:             q95            Requested time:        50:00:00
   Service Units:     44.98 
                                       Max physical memory:     1572MB
                                       Max virtual memory:      3298MB
                                       Requested memory:           0MB

                                       Number of cpus:               8

                                       Max jobfs disk use:       1.3GB
                                       Requested jobfs:         24.0GB
=============================================================================

