 Entering Gaussian System, Link 0=/apps/gaussian/g09e01/g09/g09
 AtFile(1): /home/507/hio507/Basis/6-31pGd.gbs
 Initial command:
 /apps/gaussian/g09e01/g09/l1.exe "/jobfs/local/1828123.r-man2/Gau-29263.inp" -scrdir="/jobfs/local/1828123.r-man2/"
 Entering Link 1 = /apps/gaussian/g09e01/g09/l1.exe PID=     29266.
  
 Copyright (c) 1988,1990,1992,1993,1995,1998,2003,2009,2015,
            Gaussian, Inc.  All Rights Reserved.
  
 This is part of the Gaussian(R) 09 program.  It is based on
 the Gaussian(R) 03 system (copyright 2003, Gaussian, Inc.),
 the Gaussian(R) 98 system (copyright 1998, Gaussian, Inc.),
 the Gaussian(R) 94 system (copyright 1995, Gaussian, Inc.),
 the Gaussian 92(TM) system (copyright 1992, Gaussian, Inc.),
 the Gaussian 90(TM) system (copyright 1990, Gaussian, Inc.),
 the Gaussian 88(TM) system (copyright 1988, Gaussian, Inc.),
 the Gaussian 86(TM) system (copyright 1986, Carnegie Mellon
 University), and the Gaussian 82(TM) system (copyright 1983,
 Carnegie Mellon University). Gaussian is a federally registered
 trademark of Gaussian, Inc.
  
 This software contains proprietary and confidential information,
 including trade secrets, belonging to Gaussian, Inc.
  
 This software is provided under written license and may be
 used, copied, transmitted, or stored only in accord with that
 written license.
  
 The following legend is applicable only to US Government
 contracts under FAR:
  
                    RESTRICTED RIGHTS LEGEND
  
 Use, reproduction and disclosure by the US Government is
 subject to restrictions as set forth in subparagraphs (a)
 and (c) of the Commercial Computer Software - Restricted
 Rights clause in FAR 52.227-19.
  
 Gaussian, Inc.
 340 Quinnipiac St., Bldg. 40, Wallingford CT 06492
  
  
 ---------------------------------------------------------------
 Warning -- This program may not be used in any manner that
 competes with the business of Gaussian, Inc. or will provide
 assistance to any competitor of Gaussian, Inc.  The licensee
 of this program is prohibited from giving any competitor of
 Gaussian, Inc. access to this program.  By using this program,
 the user acknowledges that Gaussian, Inc. is engaged in the
 business of creating and licensing software in the field of
 computational chemistry and represents and warrants to the
 licensee that it is not a competitor of Gaussian, Inc. and that
 it will not use this program in any manner prohibited above.
 ---------------------------------------------------------------
  

 Cite this work as:
 Gaussian 09, Revision E.01,
 M. J. Frisch, G. W. Trucks, H. B. Schlegel, G. E. Scuseria, 
 M. A. Robb, J. R. Cheeseman, G. Scalmani, V. Barone, B. Mennucci, 
 G. A. Petersson, H. Nakatsuji, M. Caricato, X. Li, H. P. Hratchian, 
 A. F. Izmaylov, J. Bloino, G. Zheng, J. L. Sonnenberg, M. Hada, 
 M. Ehara, K. Toyota, R. Fukuda, J. Hasegawa, M. Ishida, T. Nakajima, 
 Y. Honda, O. Kitao, H. Nakai, T. Vreven, J. A. Montgomery, Jr., 
 J. E. Peralta, F. Ogliaro, M. Bearpark, J. J. Heyd, E. Brothers, 
 K. N. Kudin, V. N. Staroverov, T. Keith, R. Kobayashi, J. Normand, 
 K. Raghavachari, A. Rendell, J. C. Burant, S. S. Iyengar, J. Tomasi, 
 M. Cossi, N. Rega, J. M. Millam, M. Klene, J. E. Knox, J. B. Cross, 
 V. Bakken, C. Adamo, J. Jaramillo, R. Gomperts, R. E. Stratmann, 
 O. Yazyev, A. J. Austin, R. Cammi, C. Pomelli, J. W. Ochterski, 
 R. L. Martin, K. Morokuma, V. G. Zakrzewski, G. A. Voth, 
 P. Salvador, J. J. Dannenberg, S. Dapprich, A. D. Daniels, 
 O. Farkas, J. B. Foresman, J. V. Ortiz, J. Cioslowski, 
 and D. J. Fox, Gaussian, Inc., Wallingford CT, 2013.
 
 ******************************************
 Gaussian 09:  ES64L-G09RevE.01 30-Nov-2015
                30-Oct-2018 
 ******************************************
 %chk=4SulfOxyMethyl_a1.M062X_6-31pGd_opt_water.chk
 %mem=196608000
 %nproc=4
 Will use up to    4 processors via shared memory.
 ----------------------------------------------------------------------
 # M062X/Gen 6D SCF=Tight INT(grid=ultrafine) OPT IOP(2/17=4) SCRF=(SMD
 ,Solvent=h2o) maxdisk=2147483648
 ----------------------------------------------------------------------
 1/14=-1,18=20,19=15,26=4,38=1/1,3;
 2/9=110,12=2,17=4,18=5,40=1/2;
 3/5=7,8=2,11=2,16=1,25=1,30=1,70=32201,71=1,72=1,74=-55,75=-5/1,2,3;
 4//1;
 5/5=2,32=2,38=5,53=1/2;
 6/7=2,8=2,9=2,10=2,28=1/1;
 7//1,2,3,16;
 1/14=-1,18=20,19=15,26=4/3(2);
 2/9=110,17=4/2;
 99//99;
 2/9=110,17=4/2;
 3/5=7,6=1,8=2,11=2,16=1,25=1,30=1,70=32205,71=1,72=1,74=-55,75=-5,82=7/1,2,3;
 4/5=5,16=3,69=1/1;
 5/5=2,32=2,38=5,53=1/2;
 7//1,2,3,16;
 1/14=-1,18=20,19=15,26=4/3(-5);
 2/9=110,17=4/2;
 6/7=2,8=2,9=2,10=2,19=2,28=1/1;
 99/9=1/99;
 -----------------------------------------
 4SulfOxyMethyl_a1.M062X_6-31pGd_opt_water
 -----------------------------------------
 Symbolic Z-matrix:
 Charge = -1 Multiplicity = 1
 C                    -2.11712   1.94256  -0.02386 
 C                    -0.79202   1.19505   0.09313 
 C                     0.39854   2.1541   -0.0209 
 N                     1.65725   1.43652   0.08472 
 C                     2.8588    2.07549   0.00505 
 O                     2.8813    3.28517  -0.15698 
 N                     4.01518   1.34927   0.10388 
 C                     5.3705    1.82978   0.03765 
 C                     5.73374   3.18851  -0.1322 
 C                     6.40672   0.88121   0.14803 
 C                     7.74908   1.26289   0.08969 
 C                     8.09037   2.60698  -0.08084 
 C                     7.07991   3.56437  -0.18937 
 H                    -2.95886   1.22338   0.06102 
 H                    -2.1855    2.45528  -1.00704 
 H                    -2.20892   2.69546   0.78774 
 H                    -0.73457   0.43561  -0.71695 
 H                    -0.75628   0.6744    1.07486 
 H                     0.33855   2.91147   0.79176 
 H                     0.35532   2.67336  -1.00384 
 H                     1.64084   0.41334   0.22043 
 H                     5.02039   3.98636  -0.22433 
 H                     6.17379  -0.16823   0.27964 
 H                     8.51864   0.50722   0.17795 
 S                     9.80958   3.11994  -0.16022 
 O                     10.65643   1.87293  -0.46005 
 O                     10.27371   3.38393   1.28004 
 H                     7.33533   4.60837  -0.32006 
 C                     10.44619   4.4613   -1.20643 
 H                     10.13672   4.30196  -2.21823 
 H                     11.51502   4.47458  -1.15825 
 H                     10.06185   5.39755  -0.85913 
 

 GradGradGradGradGradGradGradGradGradGradGradGradGradGradGradGradGradGrad
 Berny optimization.
 Initialization pass.
                           ----------------------------
                           !    Initial Parameters    !
                           ! (Angstroms and Degrees)  !
 --------------------------                            --------------------------
 ! Name  Definition              Value          Derivative Info.                !
 --------------------------------------------------------------------------------
 ! R1    R(1,2)                  1.5259         estimate D2E/DX2                !
 ! R2    R(1,14)                 1.1104         estimate D2E/DX2                !
 ! R3    R(1,15)                 1.1109         estimate D2E/DX2                !
 ! R4    R(1,16)                 1.1108         estimate D2E/DX2                !
 ! R5    R(2,3)                  1.533          estimate D2E/DX2                !
 ! R6    R(2,17)                 1.1119         estimate D2E/DX2                !
 ! R7    R(2,18)                 1.1118         estimate D2E/DX2                !
 ! R8    R(3,4)                  1.4527         estimate D2E/DX2                !
 ! R9    R(3,19)                 1.1125         estimate D2E/DX2                !
 ! R10   R(3,20)                 1.1125         estimate D2E/DX2                !
 ! R11   R(4,5)                  1.3632         estimate D2E/DX2                !
 ! R12   R(4,21)                 1.0323         estimate D2E/DX2                !
 ! R13   R(5,6)                  1.2207         estimate D2E/DX2                !
 ! R14   R(5,7)                  1.3691         estimate D2E/DX2                !
 ! R15   R(7,8)                  1.4395         estimate D2E/DX2                !
 ! R16   R(8,9)                  1.4167         estimate D2E/DX2                !
 ! R17   R(8,10)                 1.4092         estimate D2E/DX2                !
 ! R18   R(9,13)                 1.3988         estimate D2E/DX2                !
 ! R19   R(9,22)                 1.0742         estimate D2E/DX2                !
 ! R20   R(10,11)                1.3968         estimate D2E/DX2                !
 ! R21   R(10,23)                1.083          estimate D2E/DX2                !
 ! R22   R(11,12)                1.3972         estimate D2E/DX2                !
 ! R23   R(11,24)                1.0822         estimate D2E/DX2                !
 ! R24   R(12,13)                1.3962         estimate D2E/DX2                !
 ! R25   R(12,25)                1.7959         estimate D2E/DX2                !
 ! R26   R(13,28)                1.0827         estimate D2E/DX2                !
 ! R27   R(25,26)                1.5369         estimate D2E/DX2                !
 ! R28   R(25,27)                1.5361         estimate D2E/DX2                !
 ! R29   R(25,29)                1.8163         estimate D2E/DX2                !
 ! R30   R(29,30)                1.07           estimate D2E/DX2                !
 ! R31   R(29,31)                1.07           estimate D2E/DX2                !
 ! R32   R(29,32)                1.07           estimate D2E/DX2                !
 ! A1    A(2,1,14)             109.5821         estimate D2E/DX2                !
 ! A2    A(2,1,15)             110.328          estimate D2E/DX2                !
 ! A3    A(2,1,16)             110.3515         estimate D2E/DX2                !
 ! A4    A(14,1,15)            108.6574         estimate D2E/DX2                !
 ! A5    A(14,1,16)            108.6924         estimate D2E/DX2                !
 ! A6    A(15,1,16)            109.1899         estimate D2E/DX2                !
 ! A7    A(1,2,3)              111.2378         estimate D2E/DX2                !
 ! A8    A(1,2,17)             108.8815         estimate D2E/DX2                !
 ! A9    A(1,2,18)             108.9668         estimate D2E/DX2                !
 ! A10   A(3,2,17)             109.4492         estimate D2E/DX2                !
 ! A11   A(3,2,18)             109.4915         estimate D2E/DX2                !
 ! A12   A(17,2,18)            108.7723         estimate D2E/DX2                !
 ! A13   A(2,3,4)              111.0058         estimate D2E/DX2                !
 ! A14   A(2,3,19)             109.2494         estimate D2E/DX2                !
 ! A15   A(2,3,20)             109.1195         estimate D2E/DX2                !
 ! A16   A(4,3,19)             109.2621         estimate D2E/DX2                !
 ! A17   A(4,3,20)             109.1747         estimate D2E/DX2                !
 ! A18   A(19,3,20)            108.9996         estimate D2E/DX2                !
 ! A19   A(3,4,5)              121.8648         estimate D2E/DX2                !
 ! A20   A(3,4,21)             119.0378         estimate D2E/DX2                !
 ! A21   A(5,4,21)             119.097          estimate D2E/DX2                !
 ! A22   A(4,5,6)              119.242          estimate D2E/DX2                !
 ! A23   A(4,5,7)              119.4474         estimate D2E/DX2                !
 ! A24   A(6,5,7)              121.3103         estimate D2E/DX2                !
 ! A25   A(5,7,8)              127.9418         estimate D2E/DX2                !
 ! A26   A(7,8,9)              124.5467         estimate D2E/DX2                !
 ! A27   A(7,8,10)             117.6482         estimate D2E/DX2                !
 ! A28   A(9,8,10)             117.805          estimate D2E/DX2                !
 ! A29   A(8,9,13)             120.6213         estimate D2E/DX2                !
 ! A30   A(8,9,22)             123.5298         estimate D2E/DX2                !
 ! A31   A(13,9,22)            115.8488         estimate D2E/DX2                !
 ! A32   A(8,10,11)            121.2975         estimate D2E/DX2                !
 ! A33   A(8,10,23)            120.2416         estimate D2E/DX2                !
 ! A34   A(11,10,23)           118.4609         estimate D2E/DX2                !
 ! A35   A(10,11,12)           120.1801         estimate D2E/DX2                !
 ! A36   A(10,11,24)           119.2885         estimate D2E/DX2                !
 ! A37   A(12,11,24)           120.5314         estimate D2E/DX2                !
 ! A38   A(11,12,13)           119.4953         estimate D2E/DX2                !
 ! A39   A(11,12,25)           120.9318         estimate D2E/DX2                !
 ! A40   A(13,12,25)           119.5728         estimate D2E/DX2                !
 ! A41   A(9,13,12)            120.6005         estimate D2E/DX2                !
 ! A42   A(9,13,28)            119.4098         estimate D2E/DX2                !
 ! A43   A(12,13,28)           119.9897         estimate D2E/DX2                !
 ! A44   A(12,25,26)           107.7195         estimate D2E/DX2                !
 ! A45   A(12,25,27)           107.2719         estimate D2E/DX2                !
 ! A46   A(12,25,29)           124.8851         estimate D2E/DX2                !
 ! A47   A(26,25,27)            98.9675         estimate D2E/DX2                !
 ! A48   A(26,25,29)           107.0799         estimate D2E/DX2                !
 ! A49   A(27,25,29)           107.8939         estimate D2E/DX2                !
 ! A50   A(25,29,30)           109.4707         estimate D2E/DX2                !
 ! A51   A(25,29,31)           109.4715         estimate D2E/DX2                !
 ! A52   A(25,29,32)           109.4712         estimate D2E/DX2                !
 ! A53   A(30,29,31)           109.4714         estimate D2E/DX2                !
 ! A54   A(30,29,32)           109.4715         estimate D2E/DX2                !
 ! A55   A(31,29,32)           109.471          estimate D2E/DX2                !
 ! D1    D(14,1,2,3)           179.9313         estimate D2E/DX2                !
 ! D2    D(14,1,2,17)           59.2362         estimate D2E/DX2                !
 ! D3    D(14,1,2,18)          -59.2652         estimate D2E/DX2                !
 ! D4    D(15,1,2,3)            60.3349         estimate D2E/DX2                !
 ! D5    D(15,1,2,17)          -60.3601         estimate D2E/DX2                !
 ! D6    D(15,1,2,18)         -178.8615         estimate D2E/DX2                !
 ! D7    D(16,1,2,3)           -60.4147         estimate D2E/DX2                !
 ! D8    D(16,1,2,17)          178.8903         estimate D2E/DX2                !
 ! D9    D(16,1,2,18)           60.3889         estimate D2E/DX2                !
 ! D10   D(1,2,3,4)           -179.727          estimate D2E/DX2                !
 ! D11   D(1,2,3,19)            59.7164         estimate D2E/DX2                !
 ! D12   D(1,2,3,20)           -59.3636         estimate D2E/DX2                !
 ! D13   D(17,2,3,4)           -59.3666         estimate D2E/DX2                !
 ! D14   D(17,2,3,19)         -179.9231         estimate D2E/DX2                !
 ! D15   D(17,2,3,20)           60.9968         estimate D2E/DX2                !
 ! D16   D(18,2,3,4)            59.7783         estimate D2E/DX2                !
 ! D17   D(18,2,3,19)          -60.7783         estimate D2E/DX2                !
 ! D18   D(18,2,3,20)         -179.8583         estimate D2E/DX2                !
 ! D19   D(2,3,4,5)            179.6294         estimate D2E/DX2                !
 ! D20   D(2,3,4,21)            -0.1394         estimate D2E/DX2                !
 ! D21   D(19,3,4,5)           -59.8216         estimate D2E/DX2                !
 ! D22   D(19,3,4,21)          120.4096         estimate D2E/DX2                !
 ! D23   D(20,3,4,5)            59.2986         estimate D2E/DX2                !
 ! D24   D(20,3,4,21)         -120.4701         estimate D2E/DX2                !
 ! D25   D(3,4,5,6)              0.1463         estimate D2E/DX2                !
 ! D26   D(3,4,5,7)           -179.6508         estimate D2E/DX2                !
 ! D27   D(21,4,5,6)           179.9149         estimate D2E/DX2                !
 ! D28   D(21,4,5,7)             0.1178         estimate D2E/DX2                !
 ! D29   D(4,5,7,8)            179.6096         estimate D2E/DX2                !
 ! D30   D(6,5,7,8)             -0.1831         estimate D2E/DX2                !
 ! D31   D(5,7,8,9)              0.7812         estimate D2E/DX2                !
 ! D32   D(5,7,8,10)          -179.1406         estimate D2E/DX2                !
 ! D33   D(7,8,9,13)          -179.8145         estimate D2E/DX2                !
 ! D34   D(7,8,9,22)             0.1874         estimate D2E/DX2                !
 ! D35   D(10,8,9,13)            0.1071         estimate D2E/DX2                !
 ! D36   D(10,8,9,22)         -179.891          estimate D2E/DX2                !
 ! D37   D(7,8,10,11)          179.7964         estimate D2E/DX2                !
 ! D38   D(7,8,10,23)           -0.117          estimate D2E/DX2                !
 ! D39   D(9,8,10,11)           -0.1308         estimate D2E/DX2                !
 ! D40   D(9,8,10,23)          179.9559         estimate D2E/DX2                !
 ! D41   D(8,9,13,12)            0.0376         estimate D2E/DX2                !
 ! D42   D(8,9,13,28)          179.9773         estimate D2E/DX2                !
 ! D43   D(22,9,13,12)        -179.9641         estimate D2E/DX2                !
 ! D44   D(22,9,13,28)          -0.0245         estimate D2E/DX2                !
 ! D45   D(8,10,11,12)           0.0093         estimate D2E/DX2                !
 ! D46   D(8,10,11,24)        -179.993          estimate D2E/DX2                !
 ! D47   D(23,10,11,12)        179.9242         estimate D2E/DX2                !
 ! D48   D(23,10,11,24)         -0.0782         estimate D2E/DX2                !
 ! D49   D(10,11,12,13)          0.1384         estimate D2E/DX2                !
 ! D50   D(10,11,12,25)       -179.9391         estimate D2E/DX2                !
 ! D51   D(24,11,12,13)       -179.8592         estimate D2E/DX2                !
 ! D52   D(24,11,12,25)          0.0632         estimate D2E/DX2                !
 ! D53   D(11,12,13,9)          -0.1618         estimate D2E/DX2                !
 ! D54   D(11,12,13,28)        179.899          estimate D2E/DX2                !
 ! D55   D(25,12,13,9)         179.9147         estimate D2E/DX2                !
 ! D56   D(25,12,13,28)         -0.0246         estimate D2E/DX2                !
 ! D57   D(11,12,25,26)         17.6597         estimate D2E/DX2                !
 ! D58   D(11,12,25,27)        -88.0469         estimate D2E/DX2                !
 ! D59   D(11,12,25,29)        144.4332         estimate D2E/DX2                !
 ! D60   D(13,12,25,26)       -162.4179         estimate D2E/DX2                !
 ! D61   D(13,12,25,27)         91.8756         estimate D2E/DX2                !
 ! D62   D(13,12,25,29)        -35.6444         estimate D2E/DX2                !
 ! D63   D(12,25,29,30)        -52.7379         estimate D2E/DX2                !
 ! D64   D(12,25,29,31)       -172.738          estimate D2E/DX2                !
 ! D65   D(12,25,29,32)         67.2622         estimate D2E/DX2                !
 ! D66   D(26,25,29,30)         74.3024         estimate D2E/DX2                !
 ! D67   D(26,25,29,31)        -45.6976         estimate D2E/DX2                !
 ! D68   D(26,25,29,32)       -165.6975         estimate D2E/DX2                !
 ! D69   D(27,25,29,30)       -180.0            estimate D2E/DX2                !
 ! D70   D(27,25,29,31)         59.9999         estimate D2E/DX2                !
 ! D71   D(27,25,29,32)        -59.9999         estimate D2E/DX2                !
 --------------------------------------------------------------------------------
 Trust Radius=3.00D-01 FncErr=1.00D-07 GrdErr=1.00D-06
 Number of steps in this run=    168 maximum allowed number of steps=    192.
 GradGradGradGradGradGradGradGradGradGradGradGradGradGradGradGradGradGrad

                          Input orientation:                          
 ---------------------------------------------------------------------
 Center     Atomic      Atomic             Coordinates (Angstroms)
 Number     Number       Type             X           Y           Z
 ---------------------------------------------------------------------
      1          6           0       -2.117120    1.942560   -0.023860
      2          6           0       -0.792020    1.195050    0.093130
      3          6           0        0.398540    2.154100   -0.020900
      4          7           0        1.657250    1.436520    0.084720
      5          6           0        2.858800    2.075490    0.005050
      6          8           0        2.881300    3.285170   -0.156980
      7          7           0        4.015180    1.349270    0.103880
      8          6           0        5.370500    1.829780    0.037650
      9          6           0        5.733740    3.188510   -0.132200
     10          6           0        6.406720    0.881210    0.148030
     11          6           0        7.749080    1.262890    0.089690
     12          6           0        8.090370    2.606980   -0.080840
     13          6           0        7.079910    3.564370   -0.189370
     14          1           0       -2.958860    1.223380    0.061020
     15          1           0       -2.185500    2.455280   -1.007040
     16          1           0       -2.208920    2.695460    0.787740
     17          1           0       -0.734570    0.435610   -0.716950
     18          1           0       -0.756280    0.674400    1.074860
     19          1           0        0.338550    2.911470    0.791760
     20          1           0        0.355320    2.673360   -1.003840
     21          1           0        1.640840    0.413340    0.220430
     22          1           0        5.020390    3.986360   -0.224330
     23          1           0        6.173790   -0.168230    0.279640
     24          1           0        8.518640    0.507220    0.177950
     25         16           0        9.809580    3.119940   -0.160220
     26          8           0       10.656430    1.872930   -0.460050
     27          8           0       10.273710    3.383930    1.280040
     28          1           0        7.335330    4.608370   -0.320060
     29          6           0       10.446190    4.461300   -1.206430
     30          1           0       10.136720    4.301960   -2.218230
     31          1           0       11.515020    4.474580   -1.158250
     32          1           0       10.061850    5.397550   -0.859130
 ---------------------------------------------------------------------
                    Distance matrix (angstroms):
                    1          2          3          4          5
     1  C    0.000000
     2  C    1.525892   0.000000
     3  C    2.524540   1.533040   0.000000
     4  N    3.809690   2.461159   1.452731   0.000000
     5  C    4.977779   3.756517   2.461652   1.363214   0.000000
     6  O    5.177309   4.233726   2.731654   2.230297   1.220691
     7  N    6.162257   4.809685   3.707210   2.359621   1.369079
     8  C    7.488722   6.195370   4.982870   3.734313   2.523900
     9  C    7.949851   6.827166   5.435692   4.442330   3.085925
    10  C    8.591383   7.205787   6.143860   4.782242   3.746263
    11  C    9.890235   8.541370   7.405196   6.094306   4.958056
    12  C   10.229250   8.995591   7.705384   6.540827   5.259200
    13  C    9.340397   8.225616   6.830662   5.831647   4.480216
    14  H    1.110383   2.167263   3.484980   4.621089   5.879999
    15  H    1.110946   2.177232   2.782165   4.122686   5.158830
    16  H    1.110847   2.177457   2.783131   4.126310   5.165148
    17  H    2.159332   1.111881   2.172932   2.713908   4.015320
    18  H    2.160394   1.111822   2.173433   2.717781   4.021983
    19  H    2.763031   2.170799   1.112486   2.101036   2.769375
    20  H    2.758150   2.169132   1.112506   2.099942   2.764547
    21  H    4.064536   2.558532   2.152161   1.032271   2.071849
    22  H    7.427069   6.455719   4.975948   4.231773   2.894220
    23  H    8.560767   7.100410   6.231938   4.797119   4.012336
    24  H   10.734073   9.336418   8.287809   6.924663   5.875641
    25  S   11.985449  10.777908   9.461497   8.327928   7.030756
    26  O   12.781185  11.481835  10.271135   9.026210   7.814114
    27  O   12.542343  11.342413  10.036130   8.914291   7.636655
    28  H    9.825634   8.824698   7.364237   6.516523   5.153688
    29  C   12.867761  11.775169  10.377086   9.384126   8.045388
    30  H   12.670384  11.594509  10.211450   9.242063   7.928951
    31  H   13.911621  12.797832  11.412901  10.389919   9.057541
    32  H   12.687078  11.677941  10.227520   9.339053   7.979149
                    6          7          8          9         10
     6  O    0.000000
     7  N    2.258637   0.000000
     8  C    2.890010   1.439503   0.000000
     9  C    2.854185   2.528238   1.416665   0.000000
    10  C    4.277925   2.437313   1.409156   2.419724   0.000000
    11  C    5.276907   3.734926   2.445755   2.796219   1.396787
    12  C    5.253584   4.268856   2.831214   2.427863   2.421847
    13  C    4.208008   3.792787   2.445899   1.398826   2.786821
    14  H    6.197255   6.975308   8.351437   8.914054   9.372232
    15  H    5.204208   6.395767   7.653480   8.001083   8.811250
    16  H    5.210623   6.404632   7.665484   8.010945   8.827796
    17  H    4.637680   4.905982   6.307536   7.054036   7.207272
    18  H    4.643871   4.915799   6.320454   7.063859   7.225673
    19  H    2.739587   4.053549   5.201851   5.480742   6.431099
    20  H    2.733507   4.046583   5.191181   5.472891   6.415454
    21  H    3.150966   2.554807   3.993754   4.957595   4.789338
    22  H    2.252090   2.841199   2.200465   1.074207   3.420895
    23  H    4.791357   2.644484   2.166997   3.410419   1.083006
    24  H    6.293551   4.582105   3.417548   3.878296   2.144987
    25  S    6.930251   6.064659   4.626996   4.076513   4.084897
    26  O    7.908155   6.685689   5.309484   5.105988   4.406053
    27  O    7.531434   6.685237   5.291539   4.758565   4.743276
    28  H    4.649283   4.671708   3.421853   2.148577   3.869515
    29  C    7.727366   7.263576   5.851091   4.998115   5.564973
    30  H    7.610764   7.182188   5.823875   4.997752   5.586915
    31  H    8.772591   8.222417   6.795607   6.010820   6.380706
    32  H    7.517677   7.340176   5.961708   4.913331   5.896751
                   11         12         13         14         15
    11  C    0.000000
    12  C    1.397189   0.000000
    13  C    2.412980   1.396211   0.000000
    14  H   10.708051  11.136425  10.311151   0.000000
    15  H   10.065808  10.318642   9.367310   1.804554   0.000000
    16  H   10.084706  10.336229   9.380411   1.804869   1.810931
    17  H    8.561973   9.110381   8.434072   2.484610   2.503681
    18  H    8.582426   9.128731   8.447253   2.486083   3.090067
    19  H    7.624085   7.806719   6.843598   3.775784   3.132829
    20  H    7.606111   7.790208   6.832084   3.770962   2.550164
    21  H    6.168422   6.819036   6.299239   4.673202   4.507447
    22  H    3.868029   3.368688   2.102598   8.448900   7.408218
    23  H    2.136755   3.391904   3.869538   9.240653   8.855285
    24  H    1.082150   2.158560   3.398681  11.500416  10.944302
    25  S    2.785094   1.795860   2.765767  12.910420  12.043289
    26  O    3.021100   2.695792   3.965568  13.640731  12.866759
    27  O    3.505638   2.687493   3.520239  13.463094  12.701379
    28  H    3.395780   2.152411   1.082707  10.843142   9.785394
    29  C    4.379972   3.202397   3.629151  13.848679  12.791539
    30  H    4.501474   3.410123   3.742245  13.644297  12.518559
    31  H    5.104372   4.046847   4.630055  14.884560  13.849357
    32  H    4.831623   3.504247   3.563859  13.704352  12.596683
                   16         17         18         19         20
    16  H    0.000000
    17  H    3.089453   0.000000
    18  H    2.505451   1.807782   0.000000
    19  H    2.556615   3.091549   2.506647   0.000000
    20  H    3.128190   2.505532   3.090710   1.811396   0.000000
    21  H    4.511160   2.553772   2.558200   2.874549   2.873863
    22  H    7.413072   6.780123   6.784312   4.909934   4.908613
    23  H    8.872920   7.005944   7.026256   6.617918   6.601254
    24  H   10.965436   9.296659   9.319685   8.548161   8.528106
    25  S   12.063298  10.894709  10.915287   9.521036   9.502324
    26  O   12.951863  11.484196  11.577667  10.445298  10.346461
    27  O   12.511291  11.569909  11.359768   9.958365  10.202719
    28  H    9.796895   9.093555   9.104728   7.284953   7.275463
    29  C   12.932390  11.893493  12.043265  10.419171  10.250045
    30  H   12.807479  11.635611  11.944081  10.343966   9.990138
    31  H   13.974930  12.905831  13.038901  11.452482  11.305182
    32  H   12.672224  11.882918  11.961622  10.170968  10.082603
                   21         22         23         24         25
    21  H    0.000000
    22  H    4.938182   0.000000
    23  H    4.570489   4.341075   0.000000
    24  H    6.878572   4.950151   2.442313   0.000000
    25  S    8.613878   4.867354   4.921840   2.933801   0.000000
    26  O    9.158292   6.023877   4.980716   2.615789   1.536908
    27  O    9.190953   5.497583   5.516157   3.545467   1.536052
    28  H    7.093492   2.398960   4.952244   4.297402   2.891865
    29  C    9.795718   5.534383   6.472585   4.611584   1.816335
    30  H    9.656521   5.500188   6.475088   4.770735   2.395746
    31  H   10.765401   6.579573   7.221631   5.148171   2.395754
    32  H    9.844857   5.273590   6.884164   5.231860   2.395751
                   26         27         28         29         30
    26  O    0.000000
    27  O    2.336131   0.000000
    28  H    4.304873   3.562815   0.000000
    29  C    2.702026   2.715328   3.238013   0.000000
    30  H    3.043268   3.619315   3.397753   1.070000   0.000000
    31  H    2.827232   2.945442   4.265005   1.069998   1.747303
    32  H    3.596628   2.945437   2.889172   1.069999   1.747305
                   31         32
    31  H    0.000000
    32  H    1.747298   0.000000
 Stoichiometry    C11H15N2O3S(1-)
 Framework group  C1[X(C11H15N2O3S)]
 Deg. of freedom    90
 Full point group                 C1      NOp   1
 Largest Abelian subgroup         C1      NOp   1
 Largest concise Abelian subgroup C1      NOp   1
                         Standard orientation:                         
 ---------------------------------------------------------------------
 Center     Atomic      Atomic             Coordinates (Angstroms)
 Number     Number       Type             X           Y           Z
 ---------------------------------------------------------------------
      1          6           0        7.645148   -0.521923   -0.009066
      2          6           0        6.428375    0.397779   -0.053316
      3          6           0        5.123537   -0.403690    0.019191
      4          7           0        3.968577    0.476139   -0.029747
      5          6           0        2.694210   -0.006131    0.012170
      6          8           0        2.514931   -1.210683    0.095824
      7          7           0        1.641699    0.867592   -0.044459
      8          6           0        0.235251    0.561685   -0.022189
      9          6           0       -0.301045   -0.745449    0.081378
     10          6           0       -0.669596    1.638271   -0.111269
     11          6           0       -2.050469    1.428280   -0.100998
     12          6           0       -2.563149    0.132411   -0.000883
     13          6           0       -1.684934   -0.949064    0.091603
     14          1           0        8.572996    0.085521   -0.064400
     15          1           0        7.628902   -1.225103   -0.868993
     16          1           0        7.655980   -1.103007    0.937614
     17          1           0        6.452469    0.981108   -0.999585
     18          1           0        6.477971    1.104180    0.803822
     19          1           0        5.102274   -0.984820    0.967590
     20          1           0        5.081512   -1.109944   -0.839361
     21          1           0        4.117591    1.495051   -0.101834
     22          1           0        0.303134   -1.630508    0.155928
     23          1           0       -0.302599    2.654062   -0.191170
     24          1           0       -2.715831    2.278813   -0.171263
     25         16           0       -4.334843   -0.160902    0.012543
     26          8           0       -5.021797    1.099347   -0.536961
     27          8           0       -4.801088   -0.070108    1.473306
     28          1           0       -2.073524   -1.956498    0.171162
     29          6           0       -5.156826   -1.591057   -0.747769
     30          1           0       -4.849054   -1.678079   -1.768849
     31          1           0       -6.217543   -1.457046   -0.705154
     32          1           0       -4.888104   -2.480544   -0.217204
 ---------------------------------------------------------------------
 Rotational constants (GHZ):      1.8870801      0.1170573      0.1129498
 General basis read from cards:  (6D, 7F)
 There are   357 symmetry adapted cartesian basis functions of A   symmetry.
 There are   357 symmetry adapted basis functions of A   symmetry.
   357 basis functions,   628 primitive gaussians,   357 cartesian basis functions
    68 alpha electrons       68 beta electrons
       nuclear repulsion energy      1255.7074634693 Hartrees.
 NAtoms=   32 NActive=   32 NUniq=   32 SFac= 1.00D+00 NAtFMM=   60 NAOKFM=F Big=F
 Integral buffers will be    131072 words long.
 Raffenetti 2 integral format.
 Two-electron integral symmetry is turned on.
 ------------------------------------------------------------------------------
 Polarizable Continuum Model (PCM)
 =================================
 Model                : PCM (using non-symmetric T matrix).
 Atomic radii         : SMD-Coulomb.
 Polarization charges : Total charges.
 Charge compensation  : None.
 Solution method      : On-the-fly selection.
 Cavity type          : VdW (van der Waals Surface) (Alpha=1.000).
 Cavity algorithm     : GePol (No added spheres)
                        Default sphere list used, NSphG=   32.
                        Lebedev-Laikov grids with approx.  5.0 points / Ang**2.
                        Smoothing algorithm: York/Karplus (Gamma=1.0000).
                        Polarization charges: spherical gaussians, with
                                              point-specific exponents (IZeta= 3).
                        Self-potential: point-specific (ISelfS= 7).
                        Self-field    : sphere-specific E.n sum rule (ISelfD= 2).
 1st derivatives      : Analytical E(r).r(x)/FMM algorithm (CHGder, D1EAlg=3).
                        Cavity 1st derivative terms included.
 Solvent              : Water, Eps=  78.355300 Eps(inf)=   1.777849
 ------------------------------------------------------------------------------
 ------------------------------------------------------------------------------
 Atomic radii for non-electrostatic terms: SMD-CDS.
 ------------------------------------------------------------------------------
 Nuclear repulsion after PCM non-electrostatic terms =     1255.7149856134 Hartrees.
 One-electron integrals computed using PRISM.
 NBasis=   357 RedAO= T EigKep=  1.40D-06  NBF=   357
 NBsUse=   357 1.00D-06 EigRej= -1.00D+00 NBFU=   357
 ExpMin= 4.05D-02 ExpMax= 2.19D+04 ExpMxC= 3.30D+03 IAcc=3 IRadAn=         5 AccDes= 0.00D+00
 Harris functional with IExCor= 1009 and IRadAn=       5 diagonalized for initial guess.
 HarFok:  IExCor= 1009 AccDes= 0.00D+00 IRadAn=         5 IDoV= 1 UseB2=F ITyADJ=14
 ICtDFT=  3500011 ScaDFX=  1.000000  1.000000  1.000000  1.000000
 FoFCou: FMM=F IPFlag=           0 FMFlag=      100000 FMFlg1=           0
         NFxFlg=           0 DoJE=T BraDBF=F KetDBF=T FulRan=T
         wScrn=  0.000000 ICntrl=     500 IOpCl=  0 I1Cent=   200000004 NGrid=           0
         NMat0=    1 NMatS0=      1 NMatT0=    0 NMatD0=    1 NMtDS0=    0 NMtDT0=    0
 Petite list used in FoFCou.
 Requested convergence on RMS density matrix=1.00D-08 within 128 cycles.
 Requested convergence on MAX density matrix=1.00D-06.
 Requested convergence on             energy=1.00D-06.
 No special actions if energy rises.
 Inv3:  Mode=1 IEnd=    17612787.
 Iteration    1 A*A^-1 deviation from unit magnitude is 6.88D-15 for   2421.
 Iteration    1 A*A^-1 deviation from orthogonality  is 4.99D-15 for   2418    450.
 Iteration    1 A^-1*A deviation from unit magnitude is 7.22D-15 for   2421.
 Iteration    1 A^-1*A deviation from orthogonality  is 1.12D-13 for   2223   1278.
 Error on total polarization charges =  0.07438
 SCF Done:  E(RM062X) =  -1161.30139419     A.U. after   16 cycles
            NFock= 16  Conv=0.56D-08     -V/T= 2.0073
 SMD-CDS (non-electrostatic) energy       (kcal/mol) =       4.72
 (included in total energy above)

 **********************************************************************

            Population analysis using the SCF density.

 **********************************************************************

 Orbital symmetries:
       Occupied  (A) (A) (A) (A) (A) (A) (A) (A) (A) (A) (A) (A)
                 (A) (A) (A) (A) (A) (A) (A) (A) (A) (A) (A) (A)
                 (A) (A) (A) (A) (A) (A) (A) (A) (A) (A) (A) (A)
                 (A) (A) (A) (A) (A) (A) (A) (A) (A) (A) (A) (A)
                 (A) (A) (A) (A) (A) (A) (A) (A) (A) (A) (A) (A)
                 (A) (A) (A) (A) (A) (A) (A) (A)
       Virtual   (A) (A) (A) (A) (A) (A) (A) (A) (A) (A) (A) (A)
                 (A) (A) (A) (A) (A) (A) (A) (A) (A) (A) (A) (A)
                 (A) (A) (A) (A) (A) (A) (A) (A) (A) (A) (A) (A)
                 (A) (A) (A) (A) (A) (A) (A) (A) (A) (A) (A) (A)
                 (A) (A) (A) (A) (A) (A) (A) (A) (A) (A) (A) (A)
                 (A) (A) (A) (A) (A) (A) (A) (A) (A) (A) (A) (A)
                 (A) (A) (A) (A) (A) (A) (A) (A) (A) (A) (A) (A)
                 (A) (A) (A) (A) (A) (A) (A) (A) (A) (A) (A) (A)
                 (A) (A) (A) (A) (A) (A) (A) (A) (A) (A) (A) (A)
                 (A) (A) (A) (A) (A) (A) (A) (A) (A) (A) (A) (A)
                 (A) (A) (A) (A) (A) (A) (A) (A) (A) (A) (A) (A)
                 (A) (A) (A) (A) (A) (A) (A) (A) (A) (A) (A) (A)
                 (A) (A) (A) (A) (A) (A) (A) (A) (A) (A) (A) (A)
                 (A) (A) (A) (A) (A) (A) (A) (A) (A) (A) (A) (A)
                 (A) (A) (A) (A) (A) (A) (A) (A) (A) (A) (A) (A)
                 (A) (A) (A) (A) (A) (A) (A) (A) (A) (A) (A) (A)
                 (A) (A) (A) (A) (A) (A) (A) (A) (A) (A) (A) (A)
                 (A) (A) (A) (A) (A) (A) (A) (A) (A) (A) (A) (A)
                 (A) (A) (A) (A) (A) (A) (A) (A) (A) (A) (A) (A)
                 (A) (A) (A) (A) (A) (A) (A) (A) (A) (A) (A) (A)
                 (A) (A) (A) (A) (A) (A) (A) (A) (A) (A) (A) (A)
                 (A) (A) (A) (A) (A) (A) (A) (A) (A) (A) (A) (A)
                 (A) (A) (A) (A) (A) (A) (A) (A) (A) (A) (A) (A)
                 (A) (A) (A) (A) (A) (A) (A) (A) (A) (A) (A) (A)
                 (A)
 The electronic state is 1-A.
 Alpha  occ. eigenvalues --  -90.15307 -19.63231 -19.63155 -19.58866 -14.76319
 Alpha  occ. eigenvalues --  -14.70866 -10.64719 -10.59885 -10.59672 -10.59094
 Alpha  occ. eigenvalues --  -10.57450 -10.57221 -10.57210 -10.55335 -10.54706
 Alpha  occ. eigenvalues --  -10.54171 -10.53244  -8.46780  -6.38907  -6.38857
 Alpha  occ. eigenvalues --   -6.38787  -1.19947  -1.15749  -1.07296  -1.00888
 Alpha  occ. eigenvalues --   -0.98452  -0.93903  -0.88843  -0.86953  -0.85032
 Alpha  occ. eigenvalues --   -0.83957  -0.76807  -0.74088  -0.69933  -0.67538
 Alpha  occ. eigenvalues --   -0.66562  -0.63830  -0.60776  -0.57878  -0.55967
 Alpha  occ. eigenvalues --   -0.54922  -0.54401  -0.53736  -0.52217  -0.52084
 Alpha  occ. eigenvalues --   -0.51051  -0.49663  -0.49474  -0.49334  -0.49064
 Alpha  occ. eigenvalues --   -0.46232  -0.45727  -0.45231  -0.44057  -0.41493
 Alpha  occ. eigenvalues --   -0.41224  -0.40128  -0.38988  -0.38857  -0.38281
 Alpha  occ. eigenvalues --   -0.37112  -0.35624  -0.34878  -0.34085  -0.31611
 Alpha  occ. eigenvalues --   -0.30606  -0.28087  -0.23891
 Alpha virt. eigenvalues --   -0.01105   0.00975   0.01400   0.02179   0.02962
 Alpha virt. eigenvalues --    0.03907   0.04039   0.04226   0.04516   0.05185
 Alpha virt. eigenvalues --    0.05337   0.05837   0.06241   0.07306   0.07341
 Alpha virt. eigenvalues --    0.07630   0.07952   0.08118   0.08261   0.09267
 Alpha virt. eigenvalues --    0.09730   0.09983   0.10223   0.10690   0.10821
 Alpha virt. eigenvalues --    0.11526   0.11777   0.12660   0.13312   0.13470
 Alpha virt. eigenvalues --    0.14159   0.14788   0.15066   0.15531   0.15999
 Alpha virt. eigenvalues --    0.16646   0.16853   0.17195   0.17572   0.18179
 Alpha virt. eigenvalues --    0.18426   0.19074   0.19866   0.20280   0.20971
 Alpha virt. eigenvalues --    0.21419   0.21777   0.22120   0.22140   0.22792
 Alpha virt. eigenvalues --    0.23511   0.23644   0.24242   0.24558   0.24741
 Alpha virt. eigenvalues --    0.25081   0.25464   0.25988   0.26221   0.26568
 Alpha virt. eigenvalues --    0.27062   0.27421   0.28045   0.28381   0.29155
 Alpha virt. eigenvalues --    0.29645   0.29937   0.30278   0.30581   0.30838
 Alpha virt. eigenvalues --    0.31452   0.31879   0.32073   0.32657   0.32945
 Alpha virt. eigenvalues --    0.33301   0.33843   0.34060   0.34294   0.35166
 Alpha virt. eigenvalues --    0.35333   0.35776   0.36170   0.36523   0.36831
 Alpha virt. eigenvalues --    0.37191   0.38594   0.38934   0.40004   0.40244
 Alpha virt. eigenvalues --    0.41526   0.42406   0.43464   0.44410   0.45414
 Alpha virt. eigenvalues --    0.45851   0.47797   0.49123   0.52731   0.53216
 Alpha virt. eigenvalues --    0.55318   0.56304   0.56912   0.61241   0.62616
 Alpha virt. eigenvalues --    0.63009   0.64872   0.68944   0.69752   0.70466
 Alpha virt. eigenvalues --    0.70562   0.71615   0.73653   0.73867   0.75422
 Alpha virt. eigenvalues --    0.75712   0.76049   0.76897   0.77729   0.79035
 Alpha virt. eigenvalues --    0.80018   0.80072   0.81272   0.82297   0.83517
 Alpha virt. eigenvalues --    0.84402   0.84410   0.85164   0.85568   0.89112
 Alpha virt. eigenvalues --    0.89667   0.90017   0.91242   0.92174   0.95908
 Alpha virt. eigenvalues --    0.96903   0.97786   0.98870   0.99019   1.00480
 Alpha virt. eigenvalues --    1.01087   1.01896   1.04338   1.04632   1.05629
 Alpha virt. eigenvalues --    1.05755   1.06655   1.07223   1.08428   1.10818
 Alpha virt. eigenvalues --    1.11787   1.12457   1.12682   1.13606   1.14029
 Alpha virt. eigenvalues --    1.14800   1.15088   1.15834   1.18459   1.19267
 Alpha virt. eigenvalues --    1.21077   1.21624   1.23047   1.23925   1.25877
 Alpha virt. eigenvalues --    1.26212   1.29120   1.30488   1.32118   1.33279
 Alpha virt. eigenvalues --    1.34771   1.36008   1.37112   1.37322   1.38002
 Alpha virt. eigenvalues --    1.38846   1.40237   1.40647   1.41631   1.42561
 Alpha virt. eigenvalues --    1.43377   1.43836   1.45679   1.47934   1.48531
 Alpha virt. eigenvalues --    1.49149   1.50329   1.52274   1.52987   1.53596
 Alpha virt. eigenvalues --    1.55641   1.57510   1.58427   1.58832   1.61631
 Alpha virt. eigenvalues --    1.62153   1.64924   1.69802   1.73650   1.76436
 Alpha virt. eigenvalues --    1.80873   1.82522   1.86173   1.86804   1.87704
 Alpha virt. eigenvalues --    1.88264   1.89359   1.89681   1.90159   1.91762
 Alpha virt. eigenvalues --    1.92907   1.93728   1.94782   1.96935   1.98103
 Alpha virt. eigenvalues --    1.98771   1.99425   2.02517   2.03219   2.03982
 Alpha virt. eigenvalues --    2.04208   2.05287   2.05668   2.07823   2.07946
 Alpha virt. eigenvalues --    2.08818   2.14112   2.15381   2.16256   2.17546
 Alpha virt. eigenvalues --    2.19262   2.20322   2.21606   2.21923   2.23256
 Alpha virt. eigenvalues --    2.24472   2.26620   2.28370   2.29781   2.30478
 Alpha virt. eigenvalues --    2.31991   2.33337   2.34609   2.35378   2.37954
 Alpha virt. eigenvalues --    2.40512   2.41216   2.42388   2.44709   2.52908
 Alpha virt. eigenvalues --    2.59391   2.59550   2.66883   2.67028   2.67786
 Alpha virt. eigenvalues --    2.69238   2.73373   2.75677   2.77289   2.79501
 Alpha virt. eigenvalues --    2.80426   2.80546   2.82158   2.85111   2.88466
 Alpha virt. eigenvalues --    2.92581   3.01123   3.08309   3.15018   3.28980
 Alpha virt. eigenvalues --    3.34561   3.41967   4.02064   4.14151   4.17515
 Alpha virt. eigenvalues --    4.26549   4.28005   4.28664   4.30931   4.34320
 Alpha virt. eigenvalues --    4.39405   4.41306   4.43268   4.44619   4.50382
 Alpha virt. eigenvalues --    4.51751   4.60178   4.66491   4.77357
          Condensed to atoms (all electrons):
               1          2          3          4          5          6
     1  C    5.668832  -0.093960   0.080775  -0.006097  -0.072870  -0.005119
     2  C   -0.093960   6.237944  -0.514348  -0.067625   0.190800   0.023998
     3  C    0.080775  -0.514348   7.371672   0.303135  -0.674997  -0.113098
     4  N   -0.006097  -0.067625   0.303135   7.734371   0.471579  -0.252212
     5  C   -0.072870   0.190800  -0.674997   0.471579   7.114184   0.406223
     6  O   -0.005119   0.023998  -0.113098  -0.252212   0.406223   8.783958
     7  N   -0.004926   0.012343  -0.135290  -0.335649   0.324295  -0.120068
     8  C   -0.014880   0.007990  -0.604117  -0.221078  -1.210353  -0.202108
     9  C    0.003064   0.004657   0.131939   0.090570   1.479054   0.213151
    10  C   -0.004299   0.006903  -0.225403  -0.107188  -2.095900  -0.149159
    11  C    0.000154  -0.000847   0.018472   0.005890   0.354862   0.016386
    12  C   -0.000185   0.000498  -0.032149  -0.002145  -0.491571   0.002895
    13  C   -0.000282   0.005808  -0.052718  -0.043057  -0.559401   0.205286
    14  H    0.413717  -0.088339   0.027223   0.000462  -0.002284   0.000006
    15  H    0.418134  -0.066034  -0.007425   0.000302  -0.000832  -0.000054
    16  H    0.416703  -0.065618  -0.006710   0.000309  -0.000541  -0.000053
    17  H   -0.035429   0.425037  -0.072178   0.005775  -0.007564  -0.000204
    18  H   -0.033813   0.422537  -0.068929   0.005572  -0.009665  -0.000188
    19  H    0.001603  -0.038491   0.421000  -0.056294  -0.022698   0.003356
    20  H    0.003582  -0.044551   0.434500  -0.058321  -0.029743   0.003701
    21  H   -0.004520   0.004857  -0.086543   0.243903   0.032068   0.010939
    22  H   -0.000000   0.000082   0.004072   0.000289   0.015150  -0.003195
    23  H    0.000001   0.000023  -0.000492   0.000069  -0.010089   0.000116
    24  H    0.000000   0.000000   0.000024   0.000013   0.003169  -0.000001
    25  S   -0.000003  -0.000003  -0.001114  -0.000046  -0.051880   0.000512
    26  O   -0.000000  -0.000000  -0.000008   0.000003  -0.001671  -0.000000
    27  O   -0.000000  -0.000000  -0.000019  -0.000001  -0.003084  -0.000002
    28  H    0.000000   0.000001  -0.000026  -0.000007  -0.000328   0.000389
    29  C    0.000000   0.000000   0.000100   0.000013   0.006307  -0.000047
    30  H   -0.000000  -0.000000  -0.000000   0.000000  -0.000059  -0.000000
    31  H    0.000000   0.000000   0.000000  -0.000000   0.000004   0.000000
    32  H   -0.000000  -0.000000  -0.000000  -0.000000  -0.000082  -0.000000
               7          8          9         10         11         12
     1  C   -0.004926  -0.014880   0.003064  -0.004299   0.000154  -0.000185
     2  C    0.012343   0.007990   0.004657   0.006903  -0.000847   0.000498
     3  C   -0.135290  -0.604117   0.131939  -0.225403   0.018472  -0.032149
     4  N   -0.335649  -0.221078   0.090570  -0.107188   0.005890  -0.002145
     5  C    0.324295  -1.210353   1.479054  -2.095900   0.354862  -0.491571
     6  O   -0.120068  -0.202108   0.213151  -0.149159   0.016386   0.002895
     7  N    7.794917   0.477887  -0.270870  -0.141329   0.099029  -0.023820
     8  C    0.477887  12.675839   0.223836  -1.479899   1.964698  -3.352389
     9  C   -0.270870   0.223836  20.882295  -3.276920  -0.398193  -1.871141
    10  C   -0.141329  -1.479899  -3.276920  17.440047  -4.554694   1.637367
    11  C    0.099029   1.964698  -0.398193  -4.554694  19.009378  -1.484011
    12  C   -0.023820  -3.352389  -1.871141   1.637367  -1.484011  16.418390
    13  C   -0.031880  -2.061983 -11.785513  -0.696958  -7.970698  -2.976293
    14  H    0.000007  -0.000047   0.000006  -0.000002   0.000000  -0.000000
    15  H    0.000012   0.000010  -0.000042   0.000002   0.000000  -0.000000
    16  H    0.000010   0.000005  -0.000039   0.000002   0.000000  -0.000000
    17  H   -0.000084  -0.000617  -0.000168   0.000103   0.000003  -0.000002
    18  H   -0.000110  -0.000542  -0.000222   0.000124   0.000000   0.000000
    19  H   -0.000587  -0.004208   0.002324  -0.000340  -0.000000  -0.000030
    20  H   -0.001099  -0.003047   0.001670  -0.000665  -0.000049   0.000009
    21  H    0.027720   0.018824  -0.003637   0.004730  -0.000376   0.000031
    22  H   -0.005338  -0.046244   0.344810   0.005924  -0.011791   0.020525
    23  H    0.002709  -0.067491   0.042718   0.429204  -0.080243   0.044767
    24  H    0.000648   0.043362  -0.013164  -0.066819   0.351331  -0.022566
    25  S    0.000066  -0.298811  -0.438009   0.451415  -0.802784  -1.053424
    26  O    0.000119  -0.072110   0.002372   0.071903  -0.701873   0.223810
    27  O   -0.000183  -0.035763   0.006048   0.029142  -0.376417  -0.405076
    28  H   -0.000808  -0.005370   0.088192  -0.025861   0.081881   0.098010
    29  C    0.000265   0.043848  -0.104608  -0.035143   0.487225   0.190580
    30  H    0.000002  -0.001186  -0.020387  -0.000297  -0.019283  -0.043071
    31  H   -0.000000   0.000657   0.005931  -0.000086   0.012851   0.050786
    32  H   -0.000000  -0.002665   0.024780   0.001639  -0.031196  -0.075119
              13         14         15         16         17         18
     1  C   -0.000282   0.413717   0.418134   0.416703  -0.035429  -0.033813
     2  C    0.005808  -0.088339  -0.066034  -0.065618   0.425037   0.422537
     3  C   -0.052718   0.027223  -0.007425  -0.006710  -0.072178  -0.068929
     4  N   -0.043057   0.000462   0.000302   0.000309   0.005775   0.005572
     5  C   -0.559401  -0.002284  -0.000832  -0.000541  -0.007564  -0.009665
     6  O    0.205286   0.000006  -0.000054  -0.000053  -0.000204  -0.000188
     7  N   -0.031880   0.000007   0.000012   0.000010  -0.000084  -0.000110
     8  C   -2.061983  -0.000047   0.000010   0.000005  -0.000617  -0.000542
     9  C  -11.785513   0.000006  -0.000042  -0.000039  -0.000168  -0.000222
    10  C   -0.696958  -0.000002   0.000002   0.000002   0.000103   0.000124
    11  C   -7.970698   0.000000   0.000000   0.000000   0.000003   0.000000
    12  C   -2.976293  -0.000000  -0.000000  -0.000000  -0.000002   0.000000
    13  C   30.703552   0.000000  -0.000004  -0.000003  -0.000010  -0.000025
    14  H    0.000000   0.484143  -0.024052  -0.024004  -0.003006  -0.002983
    15  H   -0.000004  -0.024052   0.488714  -0.028492  -0.004584   0.003805
    16  H   -0.000003  -0.024004  -0.028492   0.488646   0.003813  -0.004569
    17  H   -0.000010  -0.003006  -0.004584   0.003813   0.494291  -0.030960
    18  H   -0.000025  -0.002983   0.003805  -0.004569  -0.030960   0.494020
    19  H    0.000918  -0.000060  -0.000320   0.002659   0.003819  -0.005607
    20  H    0.000103  -0.000057   0.002688  -0.000329  -0.005594   0.003836
    21  H    0.000840  -0.000003  -0.000000  -0.000000   0.000471   0.000454
    22  H   -0.021718  -0.000000   0.000000   0.000000  -0.000000  -0.000000
    23  H   -0.053272  -0.000000  -0.000000  -0.000000  -0.000000  -0.000000
    24  H    0.025895  -0.000000   0.000000   0.000000   0.000000   0.000000
    25  S    1.154979  -0.000000  -0.000000  -0.000000  -0.000000   0.000000
    26  O    0.310335  -0.000000  -0.000000  -0.000000  -0.000000  -0.000000
    27  O    0.490454  -0.000000   0.000000  -0.000000  -0.000000   0.000000
    28  H    0.075388  -0.000000   0.000000   0.000000   0.000000   0.000000
    29  C   -0.602616  -0.000000   0.000000  -0.000000   0.000000  -0.000000
    30  H    0.047602   0.000000  -0.000000  -0.000000  -0.000000   0.000000
    31  H   -0.019499   0.000000   0.000000   0.000000  -0.000000   0.000000
    32  H    0.051708   0.000000  -0.000000  -0.000000  -0.000000   0.000000
              19         20         21         22         23         24
     1  C    0.001603   0.003582  -0.004520  -0.000000   0.000001   0.000000
     2  C   -0.038491  -0.044551   0.004857   0.000082   0.000023   0.000000
     3  C    0.421000   0.434500  -0.086543   0.004072  -0.000492   0.000024
     4  N   -0.056294  -0.058321   0.243903   0.000289   0.000069   0.000013
     5  C   -0.022698  -0.029743   0.032068   0.015150  -0.010089   0.003169
     6  O    0.003356   0.003701   0.010939  -0.003195   0.000116  -0.000001
     7  N   -0.000587  -0.001099   0.027720  -0.005338   0.002709   0.000648
     8  C   -0.004208  -0.003047   0.018824  -0.046244  -0.067491   0.043362
     9  C    0.002324   0.001670  -0.003637   0.344810   0.042718  -0.013164
    10  C   -0.000340  -0.000665   0.004730   0.005924   0.429204  -0.066819
    11  C   -0.000000  -0.000049  -0.000376  -0.011791  -0.080243   0.351331
    12  C   -0.000030   0.000009   0.000031   0.020525   0.044767  -0.022566
    13  C    0.000918   0.000103   0.000840  -0.021718  -0.053272   0.025895
    14  H   -0.000060  -0.000057  -0.000003  -0.000000  -0.000000  -0.000000
    15  H   -0.000320   0.002688  -0.000000   0.000000  -0.000000   0.000000
    16  H    0.002659  -0.000329  -0.000000   0.000000  -0.000000   0.000000
    17  H    0.003819  -0.005594   0.000471  -0.000000  -0.000000   0.000000
    18  H   -0.005607   0.003836   0.000454  -0.000000  -0.000000   0.000000
    19  H    0.513386  -0.041948   0.002153  -0.000000  -0.000000  -0.000000
    20  H   -0.041948   0.514050   0.002125  -0.000000   0.000000  -0.000000
    21  H    0.002153   0.002125   0.278395   0.000001   0.000002  -0.000000
    22  H   -0.000000  -0.000000   0.000001   0.435887  -0.000100   0.000010
    23  H   -0.000000   0.000000   0.000002  -0.000100   0.444382  -0.003883
    24  H   -0.000000  -0.000000  -0.000000   0.000010  -0.003883   0.423602
    25  S   -0.000001   0.000001   0.000001  -0.000262   0.000343  -0.017890
    26  O    0.000000  -0.000000   0.000000   0.000017   0.000123   0.003315
    27  O   -0.000000   0.000000   0.000000   0.000022   0.000004  -0.000611
    28  H   -0.000000  -0.000000   0.000000  -0.004509   0.000012  -0.000120
    29  C    0.000000  -0.000000   0.000000   0.000173   0.000139   0.000134
    30  H    0.000000   0.000000   0.000000   0.000000   0.000000   0.000001
    31  H   -0.000000   0.000000  -0.000000  -0.000000  -0.000000  -0.000000
    32  H    0.000000   0.000000  -0.000000  -0.000000  -0.000000  -0.000001
              25         26         27         28         29         30
     1  C   -0.000003  -0.000000  -0.000000   0.000000   0.000000  -0.000000
     2  C   -0.000003  -0.000000  -0.000000   0.000001   0.000000  -0.000000
     3  C   -0.001114  -0.000008  -0.000019  -0.000026   0.000100  -0.000000
     4  N   -0.000046   0.000003  -0.000001  -0.000007   0.000013   0.000000
     5  C   -0.051880  -0.001671  -0.003084  -0.000328   0.006307  -0.000059
     6  O    0.000512  -0.000000  -0.000002   0.000389  -0.000047  -0.000000
     7  N    0.000066   0.000119  -0.000183  -0.000808   0.000265   0.000002
     8  C   -0.298811  -0.072110  -0.035763  -0.005370   0.043848  -0.001186
     9  C   -0.438009   0.002372   0.006048   0.088192  -0.104608  -0.020387
    10  C    0.451415   0.071903   0.029142  -0.025861  -0.035143  -0.000297
    11  C   -0.802784  -0.701873  -0.376417   0.081881   0.487225  -0.019283
    12  C   -1.053424   0.223810  -0.405076   0.098010   0.190580  -0.043071
    13  C    1.154979   0.310335   0.490454   0.075388  -0.602616   0.047602
    14  H   -0.000000  -0.000000  -0.000000  -0.000000  -0.000000   0.000000
    15  H   -0.000000  -0.000000   0.000000   0.000000   0.000000  -0.000000
    16  H   -0.000000  -0.000000  -0.000000   0.000000  -0.000000  -0.000000
    17  H   -0.000000  -0.000000  -0.000000   0.000000   0.000000  -0.000000
    18  H    0.000000  -0.000000   0.000000   0.000000  -0.000000   0.000000
    19  H   -0.000001   0.000000  -0.000000  -0.000000   0.000000   0.000000
    20  H    0.000001  -0.000000   0.000000  -0.000000  -0.000000   0.000000
    21  H    0.000001   0.000000   0.000000   0.000000   0.000000   0.000000
    22  H   -0.000262   0.000017   0.000022  -0.004509   0.000173   0.000000
    23  H    0.000343   0.000123   0.000004   0.000012   0.000139   0.000000
    24  H   -0.017890   0.003315  -0.000611  -0.000120   0.000134   0.000001
    25  S   15.471180   0.321944   0.417295  -0.005092  -0.401152   0.037339
    26  O    0.321944   8.916808  -0.168339   0.000462  -0.161757  -0.002387
    27  O    0.417295  -0.168339   8.958322  -0.001474  -0.201304   0.008922
    28  H   -0.005092   0.000462  -0.001474   0.436347   0.000227  -0.000087
    29  C   -0.401152  -0.161757  -0.201304   0.000227   6.605367   0.314331
    30  H    0.037339  -0.002387   0.008922  -0.000087   0.314331   0.384165
    31  H   -0.069552  -0.007915  -0.006590   0.000002   0.375050  -0.016491
    32  H    0.013922   0.009367  -0.000628  -0.000213   0.331941  -0.016710
              31         32
     1  C    0.000000  -0.000000
     2  C    0.000000  -0.000000
     3  C    0.000000  -0.000000
     4  N   -0.000000  -0.000000
     5  C    0.000004  -0.000082
     6  O    0.000000  -0.000000
     7  N   -0.000000  -0.000000
     8  C    0.000657  -0.002665
     9  C    0.005931   0.024780
    10  C   -0.000086   0.001639
    11  C    0.012851  -0.031196
    12  C    0.050786  -0.075119
    13  C   -0.019499   0.051708
    14  H    0.000000   0.000000
    15  H    0.000000  -0.000000
    16  H    0.000000  -0.000000
    17  H   -0.000000  -0.000000
    18  H    0.000000   0.000000
    19  H   -0.000000   0.000000
    20  H    0.000000   0.000000
    21  H   -0.000000  -0.000000
    22  H   -0.000000  -0.000000
    23  H   -0.000000  -0.000000
    24  H   -0.000000  -0.000001
    25  S   -0.069552   0.013922
    26  O   -0.007915   0.009367
    27  O   -0.006590  -0.000628
    28  H    0.000002  -0.000213
    29  C    0.375050   0.331941
    30  H   -0.016491  -0.016710
    31  H    0.354973  -0.018448
    32  H   -0.018448   0.389479
 Mulliken charges:
               1
     1  C   -0.730184
     2  C   -0.363663
     3  C   -0.197347
     4  N   -0.712536
     5  C    0.847914
     6  O   -0.825410
     7  N   -0.667990
     8  C    0.227953
     9  C    0.635498
    10  C   -1.217542
    11  C    0.030294
    12  C   -0.854674
    13  C   -0.196939
    14  H    0.219272
    15  H    0.218171
    16  H    0.218212
    17  H    0.227089
    18  H    0.227263
    19  H    0.219369
    20  H    0.219138
    21  H    0.467565
    22  H    0.266192
    23  H    0.250956
    24  H    0.273550
    25  S    1.271025
    26  O   -0.744518
    27  O   -0.710719
    28  H    0.262983
    29  C   -0.849073
    30  H    0.327597
    31  H    0.338328
    32  H    0.322225
 Sum of Mulliken charges =  -1.00000
 Mulliken charges with hydrogens summed into heavy atoms:
               1
     1  C   -0.074529
     2  C    0.090690
     3  C    0.241160
     4  N   -0.244971
     5  C    0.847914
     6  O   -0.825410
     7  N   -0.667990
     8  C    0.227953
     9  C    0.901690
    10  C   -0.966586
    11  C    0.303844
    12  C   -0.854674
    13  C    0.066044
    25  S    1.271025
    26  O   -0.744518
    27  O   -0.710719
    29  C    0.139077
 Electronic spatial extent (au):  <R**2>=           9246.0397
 Charge=             -1.0000 electrons
 Dipole moment (field-independent basis, Debye):
    X=              3.5187    Y=             -4.8734    Z=             -4.4402  Tot=              7.4730
 Quadrupole moment (field-independent basis, Debye-Ang):
   XX=           -150.6017   YY=           -110.4377   ZZ=           -121.8245
   XY=             40.6908   XZ=             20.1446   YZ=              4.6606
 Traceless Quadrupole moment (field-independent basis, Debye-Ang):
   XX=            -22.9804   YY=             17.1836   ZZ=              5.7968
   XY=             40.6908   XZ=             20.1446   YZ=              4.6606
 Octapole moment (field-independent basis, Debye-Ang**2):
  XXX=            282.1286  YYY=            -10.8085  ZZZ=            -14.0715  XYY=            -46.1397
  XXY=           -135.7111  XXZ=           -105.7427  XZZ=             26.0543  YZZ=             -9.2338
  YYZ=             -2.9396  XYZ=            -23.2387
 Hexadecapole moment (field-independent basis, Debye-Ang**3):
 XXXX=         -11949.0519 YYYY=           -674.6149 ZZZZ=           -292.0260 XXXY=           1086.4047
 XXXZ=            498.0956 YYYX=            116.2763 YYYZ=              4.1086 ZZZX=             70.7424
 ZZZY=             13.0501 XXYY=          -1972.0728 XXZZ=          -2111.8949 YYZZ=           -173.1942
 XXYZ=            129.6056 YYXZ=              7.4375 ZZXY=             17.8781
 N-N= 1.255714985613D+03 E-N=-5.252372433437D+03  KE= 1.152931953352D+03
 D1PCM: PCM CHGder 1st derivatives, ID1Alg=3 FixD1E=F DoIter=F DoCFld=F I1PDM=0.
 Calling FoFJK, ICntrl=      2127 FMM=F ISym2X=0 I1Cent= 0 IOpClX= 0 NMat=1 NMatS=1 NMatT=0.
 ***** Axes restored to original set *****
 -------------------------------------------------------------------
 Center     Atomic                   Forces (Hartrees/Bohr)
 Number     Number              X              Y              Z
 -------------------------------------------------------------------
      1        6          -0.005197370    0.001272310   -0.000259952
      2        6           0.003878343   -0.004035788    0.000536625
      3        6          -0.002816136    0.002947998   -0.000613899
      4        7           0.002016070   -0.029560574    0.004248103
      5        6           0.047553563   -0.030137851    0.003399664
      6        8          -0.016455567    0.069802405   -0.009134652
      7        7           0.027511277   -0.027772860    0.003402015
      8        6          -0.072623050    0.002878517   -0.000197245
      9        6           0.023322188    0.006666531    0.000144939
     10        6           0.016453706    0.005395550    0.000828971
     11        6          -0.001492472   -0.008049841   -0.000992828
     12        6          -0.003187361    0.021209634   -0.018039804
     13        6          -0.006120327   -0.003194434   -0.000093639
     14        1           0.006111548    0.008845927   -0.001051180
     15        1          -0.001128866   -0.003446548    0.009621112
     16        1          -0.000928209   -0.005813951   -0.008341208
     17        1           0.001350655    0.004787332    0.008646218
     18        1           0.001515601    0.002403054   -0.009529108
     19        1          -0.000548487   -0.004182892   -0.009136399
     20        1          -0.000719027   -0.001580446    0.009938068
     21        1           0.000602924    0.016783204   -0.002271731
     22        1          -0.007555427   -0.001543341    0.000403338
     23        1          -0.001948308   -0.001087209    0.000444116
     24        1           0.002313696   -0.001804578   -0.000768764
     25       16           0.078425814   -0.069103768    0.071988433
     26        8          -0.031409462    0.022470205   -0.030046183
     27        8          -0.027835161    0.029369084   -0.024718781
     28        1          -0.000334438    0.004020041   -0.001117241
     29        6          -0.031587353   -0.004697813    0.000495221
     30        1          -0.006367418   -0.004919558   -0.014961005
     31        1           0.015360887   -0.010740478    0.009858955
     32        1          -0.008161835    0.012820137    0.007317840
 -------------------------------------------------------------------
 Cartesian Forces:  Max     0.078425814 RMS     0.020889757

 GradGradGradGradGradGradGradGradGradGradGradGradGradGradGradGradGradGrad
 Berny optimization.
 FormGI is forming the generalized inverse of G from B-inverse, IUseBI=4.
 GSVD:  received Info=                   1 from GESDD.
 Internal  Forces:  Max     0.070080941 RMS     0.012541022
 Search for a local minimum.
 Step number   1 out of a maximum of  168
 All quantities printed in internal units (Hartrees-Bohrs-Radians)
 Mixed Optimization -- RFO/linear search
 Second derivative matrix not updated -- first step.
 ITU=  0
     Eigenvalues ---    0.00230   0.00329   0.00423   0.00425   0.00994
     Eigenvalues ---    0.01169   0.01437   0.01468   0.01789   0.01944
     Eigenvalues ---    0.01982   0.02047   0.02085   0.02101   0.02120
     Eigenvalues ---    0.02128   0.02131   0.02152   0.02178   0.03755
     Eigenvalues ---    0.03924   0.04436   0.04933   0.05553   0.05673
     Eigenvalues ---    0.05715   0.05715   0.05783   0.07395   0.08034
     Eigenvalues ---    0.09179   0.11976   0.12668   0.16000   0.16000
     Eigenvalues ---    0.16000   0.16000   0.16000   0.16000   0.16000
     Eigenvalues ---    0.16000   0.16000   0.16000   0.16000   0.17812
     Eigenvalues ---    0.21964   0.22000   0.22000   0.22004   0.22005
     Eigenvalues ---    0.22964   0.24000   0.24871   0.25000   0.25000
     Eigenvalues ---    0.25000   0.25000   0.25000   0.25000   0.26446
     Eigenvalues ---    0.29144   0.29806   0.32336   0.32338   0.32402
     Eigenvalues ---    0.32408   0.32500   0.32511   0.32559   0.35634
     Eigenvalues ---    0.35669   0.35736   0.36703   0.37230   0.37230
     Eigenvalues ---    0.37230   0.37889   0.39654   0.40682   0.41304
     Eigenvalues ---    0.42437   0.44216   0.45268   0.45965   0.46171
     Eigenvalues ---    0.51154   0.52303   0.65646   0.65877   0.95078
 RFO step:  Lambda=-7.62000477D-02 EMin= 2.30000000D-03
 Linear search not attempted -- first point.
 Maximum step size (   0.300) exceeded in Quadratic search.
    -- Step size scaled by   0.715
 Iteration  1 RMS(Cart)=  0.09747940 RMS(Int)=  0.00207544
 Iteration  2 RMS(Cart)=  0.00408148 RMS(Int)=  0.00070596
 Iteration  3 RMS(Cart)=  0.00000635 RMS(Int)=  0.00070595
 Iteration  4 RMS(Cart)=  0.00000001 RMS(Int)=  0.00070595
 Variable       Old X    -DE/DX   Delta X   Delta X   Delta X     New X
                                 (Linear)    (Quad)   (Total)
    R1        2.88352   0.00140   0.00000   0.00267   0.00267   2.88619
    R2        2.09832  -0.01044   0.00000  -0.01857  -0.01857   2.07975
    R3        2.09938  -0.01004   0.00000  -0.01788  -0.01788   2.08151
    R4        2.09920  -0.00997   0.00000  -0.01775  -0.01775   2.08145
    R5        2.89703  -0.00686   0.00000  -0.01334  -0.01334   2.88369
    R6        2.10115  -0.00950   0.00000  -0.01696  -0.01696   2.08419
    R7        2.10104  -0.00948   0.00000  -0.01693  -0.01693   2.08411
    R8        2.74526  -0.00075   0.00000  -0.00117  -0.00117   2.74409
    R9        2.10229  -0.00950   0.00000  -0.01699  -0.01699   2.08531
   R10        2.10233  -0.00949   0.00000  -0.01697  -0.01697   2.08536
   R11        2.57610   0.00191   0.00000   0.00228   0.00228   2.57838
   R12        1.95071  -0.01694   0.00000  -0.02419  -0.02419   1.92652
   R13        2.30677   0.07008   0.00000   0.04877   0.04877   2.35554
   R14        2.58718  -0.01462   0.00000  -0.01778  -0.01778   2.56940
   R15        2.72027  -0.05919   0.00000  -0.08948  -0.08948   2.63078
   R16        2.67711   0.00295   0.00000   0.00432   0.00432   2.68143
   R17        2.66292   0.00546   0.00000   0.00754   0.00754   2.67046
   R18        2.64340  -0.00984   0.00000  -0.01302  -0.01302   2.63038
   R19        2.02996   0.00384   0.00000   0.00619   0.00619   2.03615
   R20        2.63954  -0.01315   0.00000  -0.01762  -0.01762   2.62192
   R21        2.04658   0.00152   0.00000   0.00252   0.00252   2.04910
   R22        2.64030  -0.00204   0.00000  -0.00287  -0.00286   2.63744
   R23        2.04497   0.00284   0.00000   0.00468   0.00468   2.04965
   R24        2.63846   0.00126   0.00000   0.00167   0.00168   2.64014
   R25        3.39368  -0.01905   0.00000  -0.03996  -0.03996   3.35373
   R26        2.04602   0.00394   0.00000   0.00650   0.00650   2.05252
   R27        2.90434  -0.02968   0.00000  -0.02895  -0.02895   2.87538
   R28        2.90272  -0.02654   0.00000  -0.02581  -0.02581   2.87691
   R29        3.43238  -0.01789   0.00000  -0.03934  -0.03934   3.39303
   R30        2.02201   0.01673   0.00000   0.02666   0.02666   2.04867
   R31        2.02200   0.01565   0.00000   0.02494   0.02494   2.04694
   R32        2.02201   0.01652   0.00000   0.02632   0.02632   2.04833
    A1        1.91257   0.00330   0.00000   0.01043   0.01039   1.92296
    A2        1.92559   0.00199   0.00000   0.00578   0.00576   1.93135
    A3        1.92600   0.00204   0.00000   0.00592   0.00590   1.93189
    A4        1.89643  -0.00242   0.00000  -0.00686  -0.00690   1.88953
    A5        1.89704  -0.00247   0.00000  -0.00704  -0.00707   1.88997
    A6        1.90572  -0.00258   0.00000  -0.00869  -0.00870   1.89702
    A7        1.94147  -0.00074   0.00000  -0.00058  -0.00057   1.94089
    A8        1.90034   0.00157   0.00000   0.00670   0.00669   1.90704
    A9        1.90183   0.00151   0.00000   0.00635   0.00635   1.90818
   A10        1.91025  -0.00042   0.00000  -0.00244  -0.00244   1.90781
   A11        1.91099  -0.00045   0.00000  -0.00262  -0.00263   1.90836
   A12        1.89844  -0.00148   0.00000  -0.00753  -0.00756   1.89088
   A13        1.93742  -0.00360   0.00000  -0.00738  -0.00737   1.93004
   A14        1.90676   0.00097   0.00000   0.00184   0.00186   1.90862
   A15        1.90450   0.00112   0.00000   0.00255   0.00256   1.90706
   A16        1.90698   0.00198   0.00000   0.00650   0.00650   1.91348
   A17        1.90546   0.00196   0.00000   0.00664   0.00664   1.91210
   A18        1.90240  -0.00244   0.00000  -0.01030  -0.01031   1.89210
   A19        2.12694   0.00049   0.00000   0.00119   0.00119   2.12813
   A20        2.07760   0.00008   0.00000   0.00040   0.00040   2.07800
   A21        2.07864  -0.00057   0.00000  -0.00159  -0.00159   2.07705
   A22        2.08117  -0.00269   0.00000  -0.00589  -0.00590   2.07527
   A23        2.08475  -0.03556   0.00000  -0.07791  -0.07791   2.00684
   A24        2.11726   0.03825   0.00000   0.08381   0.08381   2.20108
   A25        2.23301  -0.03681   0.00000  -0.08065  -0.08065   2.15236
   A26        2.17375   0.01018   0.00000   0.02201   0.02202   2.19577
   A27        2.05335  -0.00975   0.00000  -0.02165  -0.02164   2.03171
   A28        2.05608  -0.00043   0.00000  -0.00037  -0.00038   2.05570
   A29        2.10524  -0.00086   0.00000  -0.00119  -0.00120   2.10404
   A30        2.15600  -0.00637   0.00000  -0.01998  -0.01998   2.13603
   A31        2.02194   0.00723   0.00000   0.02117   0.02118   2.04312
   A32        2.11704   0.00317   0.00000   0.00774   0.00773   2.12477
   A33        2.09861  -0.00328   0.00000  -0.00901  -0.00900   2.08961
   A34        2.06753   0.00011   0.00000   0.00127   0.00127   2.06880
   A35        2.09754  -0.00679   0.00000  -0.01658  -0.01657   2.08096
   A36        2.08198   0.00384   0.00000   0.00962   0.00962   2.09160
   A37        2.10367   0.00295   0.00000   0.00695   0.00695   2.11062
   A38        2.08559   0.00926   0.00000   0.02034   0.02035   2.10594
   A39        2.11066  -0.01247   0.00000  -0.02734  -0.02735   2.08331
   A40        2.08694   0.00321   0.00000   0.00699   0.00699   2.09393
   A41        2.10488  -0.00436   0.00000  -0.00994  -0.00993   2.09494
   A42        2.08409   0.00086   0.00000   0.00095   0.00095   2.08505
   A43        2.09421   0.00351   0.00000   0.00898   0.00898   2.10319
   A44        1.88006   0.00996   0.00000   0.01394   0.00974   1.88980
   A45        1.87225   0.01597   0.00000   0.02900   0.02432   1.89657
   A46        2.17966  -0.04128   0.00000  -0.12253  -0.12672   2.05294
   A47        1.72731   0.02828   0.00000   0.15054   0.14942   1.87673
   A48        1.86890   0.00442   0.00000   0.00390   0.00120   1.87010
   A49        1.88310  -0.00137   0.00000  -0.00992  -0.01222   1.87088
   A50        1.91063  -0.00022   0.00000   0.00045   0.00027   1.91090
   A51        1.91064  -0.01983   0.00000  -0.06214  -0.06252   1.84812
   A52        1.91063  -0.00072   0.00000  -0.00115  -0.00134   1.90929
   A53        1.91064   0.00891   0.00000   0.02486   0.02449   1.93513
   A54        1.91064   0.00278   0.00000   0.01272   0.01270   1.92334
   A55        1.91063   0.00908   0.00000   0.02526   0.02483   1.93546
    D1        3.14039   0.00004   0.00000   0.00029   0.00029   3.14068
    D2        1.03387   0.00001   0.00000  -0.00071  -0.00070   1.03316
    D3       -1.03437   0.00001   0.00000   0.00084   0.00083  -1.03354
    D4        1.05304  -0.00027   0.00000  -0.00139  -0.00140   1.05165
    D5       -1.05348  -0.00031   0.00000  -0.00238  -0.00239  -1.05587
    D6       -3.12172  -0.00030   0.00000  -0.00084  -0.00085  -3.12258
    D7       -1.05444   0.00033   0.00000   0.00185   0.00186  -1.05258
    D8        3.12222   0.00030   0.00000   0.00085   0.00086   3.12309
    D9        1.05399   0.00030   0.00000   0.00240   0.00240   1.05639
   D10       -3.13683  -0.00005   0.00000  -0.00032  -0.00032  -3.13715
   D11        1.04225  -0.00087   0.00000  -0.00494  -0.00494   1.03731
   D12       -1.03609   0.00085   0.00000   0.00494   0.00494  -1.03115
   D13       -1.03614   0.00116   0.00000   0.00606   0.00606  -1.03008
   D14       -3.14025   0.00034   0.00000   0.00144   0.00144  -3.13881
   D15        1.06460   0.00206   0.00000   0.01133   0.01132   1.07592
   D16        1.04333  -0.00117   0.00000  -0.00616  -0.00615   1.03718
   D17       -1.06078  -0.00198   0.00000  -0.01078  -0.01077  -1.07155
   D18       -3.13912  -0.00026   0.00000  -0.00089  -0.00089  -3.14001
   D19        3.13512   0.00012   0.00000   0.00079   0.00079   3.13591
   D20       -0.00243   0.00011   0.00000   0.00074   0.00074  -0.00169
   D21       -1.04408   0.00033   0.00000   0.00265   0.00264  -1.04144
   D22        2.10154   0.00033   0.00000   0.00260   0.00259   2.10414
   D23        1.03496  -0.00029   0.00000  -0.00205  -0.00205   1.03291
   D24       -2.10260  -0.00029   0.00000  -0.00210  -0.00209  -2.10469
   D25        0.00255   0.00024   0.00000   0.00168   0.00165   0.00421
   D26       -3.13550  -0.00016   0.00000  -0.00110  -0.00107  -3.13657
   D27        3.14011   0.00025   0.00000   0.00173   0.00171  -3.14137
   D28        0.00206  -0.00015   0.00000  -0.00105  -0.00102   0.00104
   D29        3.13478   0.00034   0.00000   0.00268   0.00272   3.13750
   D30       -0.00320   0.00002   0.00000   0.00004  -0.00001  -0.00321
   D31        0.01363   0.00008   0.00000   0.00075   0.00077   0.01440
   D32       -3.12659   0.00024   0.00000   0.00186   0.00185  -3.12475
   D33       -3.13835   0.00012   0.00000   0.00090   0.00089  -3.13746
   D34        0.00327   0.00011   0.00000   0.00085   0.00086   0.00414
   D35        0.00187  -0.00004   0.00000  -0.00022  -0.00022   0.00165
   D36       -3.13969  -0.00005   0.00000  -0.00027  -0.00024  -3.13993
   D37        3.13804  -0.00031   0.00000  -0.00234  -0.00234   3.13570
   D38       -0.00204  -0.00010   0.00000  -0.00084  -0.00084  -0.00288
   D39       -0.00228  -0.00018   0.00000  -0.00133  -0.00137  -0.00365
   D40        3.14082   0.00003   0.00000   0.00017   0.00013   3.14095
   D41        0.00066  -0.00030   0.00000  -0.00208  -0.00203  -0.00137
   D42        3.14120   0.00010   0.00000   0.00075   0.00080  -3.14119
   D43       -3.14097  -0.00029   0.00000  -0.00203  -0.00200   3.14022
   D44       -0.00043   0.00010   0.00000   0.00080   0.00082   0.00040
   D45        0.00016   0.00071   0.00000   0.00515   0.00511   0.00527
   D46       -3.14147   0.00020   0.00000   0.00138   0.00137  -3.14010
   D47        3.14027   0.00051   0.00000   0.00366   0.00362  -3.13929
   D48       -0.00136  -0.00001   0.00000  -0.00010  -0.00012  -0.00148
   D49        0.00242  -0.00101   0.00000  -0.00730  -0.00730  -0.00489
   D50       -3.14053  -0.00151   0.00000  -0.01125  -0.01122   3.13144
   D51       -3.13914  -0.00049   0.00000  -0.00349  -0.00352   3.14053
   D52        0.00110  -0.00099   0.00000  -0.00744  -0.00744  -0.00633
   D53       -0.00282   0.00080   0.00000   0.00580   0.00581   0.00299
   D54        3.13983   0.00041   0.00000   0.00296   0.00296  -3.14040
   D55        3.14010   0.00131   0.00000   0.00972   0.00977  -3.13331
   D56       -0.00043   0.00092   0.00000   0.00687   0.00693   0.00650
   D57        0.30822   0.02081   0.00000   0.09139   0.09156   0.39978
   D58       -1.53671  -0.02190   0.00000  -0.09634  -0.09700  -1.63371
   D59        2.52083   0.00062   0.00000   0.00009   0.00049   2.52133
   D60       -2.83473   0.02031   0.00000   0.08746   0.08769  -2.74704
   D61        1.60353  -0.02239   0.00000  -0.10027  -0.10088   1.50265
   D62       -0.62211   0.00013   0.00000  -0.00385  -0.00339  -0.62550
   D63       -0.92045  -0.00094   0.00000  -0.00759  -0.00719  -0.92764
   D64       -3.01485   0.00043   0.00000  -0.00026   0.00005  -3.01479
   D65        1.17395   0.00189   0.00000   0.00756   0.00774   1.18169
   D66        1.29682  -0.01851   0.00000  -0.09370  -0.09278   1.20404
   D67       -0.79757  -0.01714   0.00000  -0.08637  -0.08554  -0.88312
   D68       -2.89197  -0.01568   0.00000  -0.07855  -0.07785  -2.96982
   D69       -3.14159   0.01469   0.00000   0.07368   0.07266  -3.06893
   D70        1.04720   0.01606   0.00000   0.08100   0.07991   1.12710
   D71       -1.04720   0.01751   0.00000   0.08882   0.08759  -0.95960
         Item               Value     Threshold  Converged?
 Maximum Force            0.070081     0.000450     NO 
 RMS     Force            0.012541     0.000300     NO 
 Maximum Displacement     0.509741     0.001800     NO 
 RMS     Displacement     0.100521     0.001200     NO 
 Predicted change in Energy=-4.130222D-02
 GradGradGradGradGradGradGradGradGradGradGradGradGradGradGradGradGradGrad

                          Input orientation:                          
 ---------------------------------------------------------------------
 Center     Atomic      Atomic             Coordinates (Angstroms)
 Number     Number       Type             X           Y           Z
 ---------------------------------------------------------------------
      1          6           0       -2.021615    1.931566   -0.034959
      2          6           0       -0.680111    1.210374    0.078661
      3          6           0        0.484467    2.190109   -0.033134
      4          7           0        1.752398    1.489957    0.070591
      5          6           0        2.946865    2.144949   -0.006063
      6          8           0        2.946938    3.381219   -0.165413
      7          7           0        4.045227    1.350888    0.102421
      8          6           0        5.348675    1.836294    0.043370
      9          6           0        5.721788    3.195842   -0.117367
     10          6           0        6.381698    0.878115    0.151695
[...]
 00008157,0.00025920,-0.00026674,-0.00000797,-0.00146118,0.00008924,-0.
 00053736,0.00357574,-0.00281350,-0.00050836,-0.00075771,0.00157647,0.0
 0077350,-0.00618179,0.00001206,-0.00089557,0.00526558,0.00151217,0.000
 78526,-0.00272034,-0.00097438,0.00023355,-0.00260019,-0.00146737,0.000
 66346,-0.00597463,0.00440783,-0.00229279,0.00442674,-0.01976468,-0.006
 37049,0.00420125,-0.00339625,0.00051957,-0.00002303,0.00000259,0.00000
 614,-0.00000206,0.00000546,0.00000082,-0.00000193,0.00000006,0.0000025
 5,0.00000265,-0.00000153,-0.00001074,-0.00000052,-0.00000691,-0.000003
 79,-0.00012390,0.00000749,0.00008612,-0.00004092,0.00001915,0.00001605
 ,0.00003652,0.00005365,0.00011425,-0.00042543,-0.00009147,0.00000627,-
 0.00096263,-0.00028918,0.00015393,0.00044527,0.00048772,-0.00031319,-0
 .00821969,-0.45338737,-0.12767477,0.00090031,-0.02539805,-0.00860807,0
 .01311141,0.50971543,-0.00000153,-0.00000373,-0.00000212,-0.00000376,0
 .00000491,0.00000537,0.00001886,-0.00001171,-0.00002065,-0.00010730,0.
 00001696,-0.00003031,0.00023021,-0.00017806,-0.00000619,-0.00007996,0.
 00010915,0.00007628,-0.00042815,-0.00008939,-0.00002692,0.00018169,0.0
 0045919,0.00004010,-0.00033177,-0.00021904,-0.00009316,0.00057843,-0.0
 0088383,-0.00036320,-0.00285654,0.00031871,0.00113686,0.00295299,-0.00
 452630,0.00739898,0.00059745,-0.00021713,0.00026802,-0.00000179,0.0000
 0022,0.00000061,-0.00000027,0.00000055,-0.00000030,-0.00000042,-0.0000
 0041,0.00000107,0.00000016,-0.00000046,0.00000033,0.00000078,0.0000000
 8,-0.00000047,-0.00000686,0.00000002,0.00000888,-0.00000369,0.00000193
 ,0.00000129,0.00000623,0.00000336,0.00000615,-0.00007893,-0.00002875,-
 0.00007965,-0.00022912,-0.00007662,-0.00025901,-0.00002204,0.00001125,
 0.00019540,0.00002152,-0.12885387,-0.11819741,-0.00506158,0.01934550,0
 .01396188,0.00501918,0.14873760,0.10456791,-0.00000440,-0.00000652,-0.
 00000604,-0.00000867,0.00001221,0.00001695,0.00003358,-0.00002848,-0.0
 0004964,-0.00026268,0.00004512,-0.00007017,0.00065114,-0.00034080,-0.0
 0028108,-0.00014925,0.00021145,0.00022346,-0.00048309,-0.00153781,0.00
 024831,-0.00474551,-0.00010081,-0.00133579,-0.00186041,-0.02934677,0.0
 0188004,-0.00082665,-0.00006670,0.00004254,-0.00386316,0.00267071,-0.0
 0109903,0.00953440,0.02112299,-0.00100185,-0.07095042,-0.05944746,0.00
 172150,-0.00000435,0.00000048,0.00000145,-0.00000032,0.00000082,0.0000
 0012,-0.00000047,0.00000002,0.00000057,0.00000059,0.00000002,-0.000001
 61,0.00000013,-0.00000120,-0.00000064,-0.00001068,-0.00000078,0.000013
 44,-0.00001307,0.00000655,0.00000728,0.00001495,0.00003019,0.00004391,
 0.00141825,0.00048820,0.00056921,0.00015883,-0.00008453,0.00006914,0.0
 0050976,0.00117239,-0.00002708,-0.00094372,0.00214451,0.00039575,0.000
 57171,-0.00039841,0.00010231,-0.00022061,-0.00042142,0.00014439,0.0714
 0477,-0.00000267,-0.00000546,-0.00000394,-0.00000473,0.00000951,0.0000
 1259,0.00003356,-0.00002793,-0.00001827,-0.00020079,0.00002250,-0.0000
 6369,0.00050972,-0.00036628,-0.00010303,-0.00007044,0.00020919,0.00011
 418,-0.00062990,-0.00035055,-0.00007093,-0.00029301,0.00181632,0.00043
 373,-0.00030642,-0.00358384,0.00057581,-0.00015389,0.00068617,-0.00011
 693,0.00373090,-0.00039513,0.00079369,-0.00448943,-0.01510706,0.000870
 30,-0.05938575,-0.33505871,0.01777297,-0.00000342,0.00000029,0.0000008
 8,-0.00000031,0.00000092,0.00000007,-0.00000018,0.00000003,0.00000058,
 0.00000029,-0.00000003,-0.00000162,0.00000004,-0.00000114,-0.00000053,
 -0.00001378,0.00000053,0.00001210,-0.00000793,0.00000327,0.00000309,0.
 00000960,0.00001311,0.00002163,0.00014461,0.00082003,-0.00037612,-0.00
 007082,-0.00007146,-0.00005436,-0.00035206,-0.00064197,0.00004239,-0.0
 0096047,-0.00274711,-0.00052834,0.00021142,0.00044005,-0.00007239,-0.0
 0205669,0.00115544,-0.00019722,0.06400226,0.35307441,0.00000101,0.0000
 0214,0.00000157,-0.00000065,-0.00000385,-0.00000435,-0.00002218,0.0000
 2024,-0.00000310,0.00010590,0.00003343,0.00009304,-0.00026532,0.000283
 37,0.00015618,0.00023889,-0.00001812,-0.00014027,0.00069758,-0.0001573
 2,-0.00098414,-0.00169657,0.00019880,0.00850579,-0.00019016,-0.0016005
 5,0.00582916,0.00020628,-0.00031090,-0.00104444,-0.00136826,0.00063824
 ,0.00512662,0.00112252,0.00320287,0.00318803,0.00133925,0.01703259,-0.
 04010626,0.00000149,-0.00000021,-0.00000043,0.00000031,-0.00000038,0.0
 0000006,0.00000027,0.00000009,-0.00000046,-0.00000023,0.00000021,0.000
 00072,-0.00000013,0.00000039,0.00000028,0.00001303,0.00000123,-0.00000
 306,0.00000177,-0.00000329,-0.00000165,0.00002394,-0.00000030,-0.00002
 805,0.00036740,-0.00039018,-0.00495417,0.00008621,-0.00002930,-0.00071
 928,0.00002726,0.00021314,0.00065117,0.00096392,0.00008141,-0.00291080
 ,-0.00044190,0.00001149,0.00018133,-0.00023922,-0.00042876,-0.00012208
 ,-0.00147964,-0.01902711,0.02733841,-0.00001898,-0.00003208,-0.0000270
 0,-0.00002235,0.00006305,0.00007950,0.00026417,-0.00025235,-0.00001237
 ,-0.00144801,0.00009386,-0.00058550,0.00357786,-0.00293264,-0.00033258
 ,-0.00056100,0.00162118,0.00066249,-0.00631526,-0.00030365,-0.00074521
 ,0.00501288,0.00185785,0.00100351,-0.00245353,-0.00282940,-0.00157161,
 -0.00341440,0.00056762,-0.00126931,0.00054666,0.00466049,0.00172086,-0
 .01113975,-0.00276602,0.01826645,0.00360037,-0.00286826,0.00248600,-0.
 00002231,0.00000248,0.00000591,-0.00000110,0.00000394,0.00000109,-0.00
 000186,0.00000063,0.00000200,0.00000259,-0.00000078,-0.00001006,-0.000
 00075,-0.00000815,-0.00000367,-0.00011976,0.00000819,0.00008836,-0.000
 04120,0.00001501,0.00001596,0.00003828,0.00005750,0.00011172,-0.000215
 32,-0.00002127,-0.00025547,-0.00021634,-0.00019812,-0.00026612,0.00008
 839,-0.00016896,0.00045043,-0.07600505,0.00041988,0.04127090,0.0051567
 5,0.01075550,-0.02490706,0.00884356,-0.00494133,-0.00390585,-0.0000307
 1,0.00026038,0.00056492,0.57062170,-0.00000698,-0.00001012,-0.00000946
 ,-0.00000778,0.00002044,0.00002844,0.00009149,-0.00008795,-0.00000286,
 -0.00049474,0.00003157,-0.00019693,0.00122588,-0.00100058,-0.00011018,
 -0.00019820,0.00054458,0.00022290,-0.00214559,-0.00012626,-0.00025465,
 0.00165979,0.00073757,0.00034497,-0.00095178,-0.00067802,-0.00057356,-
 0.00121684,0.00052633,-0.00049640,0.00160679,0.00145385,0.00013715,-0.
 00597782,0.00610651,0.00566551,0.00020348,-0.00173087,0.00119222,-0.00
 000759,0.00000087,0.00000198,-0.00000034,0.00000138,0.00000029,-0.0000
 0062,0.00000010,0.00000068,0.00000125,-0.00000027,-0.00000313,-0.00000
 038,-0.00000261,-0.00000130,-0.00004075,0.00000268,0.00003005,-0.00001
 423,0.00000519,0.00000534,0.00001299,0.00001917,0.00003831,-0.00014142
 ,-0.00005943,-0.00014796,0.00000488,-0.00005782,-0.00000870,0.00002341
 ,-0.00003916,0.00014541,-0.00107263,-0.06036691,-0.00016235,0.00170597
 ,-0.00138073,0.02513146,0.00917291,-0.01329223,-0.03392898,-0.00005855
 ,0.00011600,0.00017373,-0.00294854,0.60824841,-0.00000237,-0.00000725,
 -0.00000416,-0.00000468,0.00001380,0.00001673,0.00005812,-0.00005050,-
 0.00000697,-0.00030662,0.00002156,-0.00011642,0.00076610,-0.00064430,-
 0.00009070,-0.00010902,0.00035234,0.00013683,-0.00135689,-0.00008100,-
 0.00018948,0.00106061,0.00038992,0.00025527,-0.00044284,-0.00072178,-0
 .00029066,-0.00079139,0.00019514,-0.00026387,0.00055519,0.00071533,-0.
 00051310,-0.00240329,-0.00082822,0.00647680,0.00095863,-0.00015074,-0.
 00050560,-0.00000476,0.00000047,0.00000119,-0.00000038,0.00000104,0.00
 000012,-0.00000034,0.00000010,0.00000057,0.00000085,-0.00000008,-0.000
 00208,-0.00000008,-0.00000177,-0.00000088,-0.00002506,0.00000185,0.000
 01943,-0.00000946,0.00000322,0.00000360,0.00000894,0.00001248,0.000021
 73,-0.00005504,0.00001026,-0.00001218,-0.00005217,-0.00004712,-0.00002
 488,-0.00008955,-0.00012187,0.00019752,0.02882766,-0.00384527,-0.15444
 071,0.00414300,0.00150129,-0.01280421,0.00380557,0.00100148,-0.0044695
 6,-0.00015562,0.00007590,0.00021349,0.06986206,-0.00441490,0.42029307,
 0.00000121,0.00000054,0.00000185,0.00000076,-0.00000069,-0.00000261,-0
 .00000507,0.00000625,-0.00000345,0.00003028,-0.00000527,0.00001014,-0.
 00007441,0.00007275,0.00001745,0.00000872,-0.00003970,-0.00001724,0.00
 014092,0.00000778,0.00001800,-0.00009839,-0.00004212,-0.00000737,0.000
 08656,0.00005050,0.00008437,0.00005703,-0.00011957,0.00003516,-0.00043
 613,-0.00007929,0.00007858,0.00029750,-0.00057686,-0.00015046,-0.00004
 112,0.00013419,-0.00014081,0.00000053,-0.00000004,-0.00000011,0.000000
 07,-0.00000014,-0.00000001,0.00000014,0.00000002,-0.00000024,-0.000000
 59,-0.00000006,0.00000009,-0.00000014,0.00000014,0.00000019,0.00000296
 ,-0.00000006,-0.00000242,0.00000060,-0.00000034,-0.00000010,-0.0000008
 2,-0.00000181,-0.00000168,0.00000542,0.00000127,0.00000912,-0.00001354
 ,-0.00000060,-0.00001264,0.00002872,-0.00004498,0.00001702,-0.00210230
 ,0.01046722,0.00206389,-0.00013085,-0.00060524,-0.00097277,0.00045599,
 0.00206369,0.00412710,0.00004081,-0.00001493,-0.00002812,-0.04731370,-
 0.02133120,-0.00790192,0.04627623,-0.00000095,-0.00000107,-0.00000106,
 -0.00000068,0.00000190,0.00000203,0.00000831,-0.00000881,0.00000139,-0
 .00004972,0.00000233,-0.00001881,0.00011721,-0.00008806,-0.00002343,-0
 .00002805,0.00004771,0.00002303,-0.00019089,-0.00002365,-0.00001551,0.
 00010692,0.00021975,-0.00000655,-0.00019633,-0.00015861,-0.00000828,0.
 00006687,-0.00001669,0.00004939,-0.00023422,0.00019003,0.00005488,-0.0
 0010670,0.00020633,0.00008492,0.00033811,-0.00016132,0.00009023,-0.000
 00061,0.00000019,0.00000030,0.,-0.00000002,0.00000005,-0.00000004,0.00
 000007,-0.00000004,-0.00000013,-0.00000014,-0.00000009,0.00000013,-0.0
 0000002,-0.00000008,-0.00000392,0.00000036,0.00000294,-0.00000137,0.00
 000057,0.00000061,0.00000087,0.00000183,0.00000402,-0.00000681,-0.0000
 0505,-0.00000833,-0.00001372,-0.00001009,-0.00000811,0.00009076,0.0000
 1440,-0.00006963,0.00077145,-0.00031431,0.00002526,-0.00011818,0.00073
 953,0.00095742,-0.00031739,0.00194604,0.00124305,0.00000049,0.00000918
 ,0.00000261,-0.02069877,-0.30633685,-0.09137932,0.02219721,0.32234827,
 -0.00000095,-0.00000152,-0.00000102,-0.00000110,0.00000234,0.00000370,
 0.00001154,-0.00000962,-0.00000317,-0.00006335,0.00000235,-0.00002530,
 0.00015518,-0.00012980,-0.00000625,-0.00002600,0.00006765,0.00002611,-
 0.00026650,-0.00002729,-0.00001984,0.00014466,0.00028365,-0.00001058,-
 0.00028610,-0.00021306,-0.00012060,0.00002331,0.00016314,-0.00001660,0
 .00052127,0.00009196,-0.00000152,-0.00101260,0.00165772,0.00040617,0.0
 0019968,-0.00014828,0.00032514,-0.00000090,0.00000014,0.00000030,-0.00
 000002,0.00000010,0.00000006,-0.00000007,0.00000002,0.00000003,0.00000
 029,0.00000001,-0.00000027,-0.00000027,-0.00000030,-0.00000022,-0.0000
 0541,0.00000028,0.00000369,-0.00000157,0.00000075,0.00000064,0.0000010
 8,0.00000208,0.00000521,-0.00000796,-0.00000844,-0.00003376,0.00002603
 ,-0.00000543,0.00001266,-0.00001078,0.00007211,-0.00007816,-0.00369323
 ,-0.02677641,-0.00802776,0.00062919,0.00225023,0.00171452,0.00285972,-
 0.00461519,-0.00778167,-0.00002535,0.00002394,0.00003137,-0.00780717,-
 0.08908038,-0.07710706,0.00645447,0.09753085,0.08159247,-0.00000255,-0
 .00000285,-0.00000406,-0.00000200,0.00000581,0.00000784,0.00002235,-0.
 00002595,0.00000642,-0.00013139,0.00001368,-0.00005364,0.00033219,-0.0
 0026774,-0.00004461,-0.00005245,0.00014843,0.00006223,-0.00058745,-0.0
 0002192,-0.00008135,0.00052180,0.00006540,0.00011654,-0.00018284,-0.00
 019217,-0.00009909,-0.00047201,0.00003941,-0.00011866,0.00033755,0.000
 62764,0.00020682,-0.00058193,-0.00034000,0.00131430,0.00049333,-0.0002
 7080,0.00024740,-0.00000226,0.00000014,0.00000044,-0.00000022,0.000000
 57,0.00000008,-0.00000030,-0.00000004,0.00000039,0.00000020,-0.0000000
 9,-0.00000125,0.00000003,-0.00000088,-0.00000034,-0.00001138,0.0000007
 5,0.00000824,-0.00000347,0.00000151,0.00000109,0.00000359,0.00000567,0
 .00001006,-0.00002005,-0.00000453,-0.00002591,-0.00002054,-0.00001472,
 -0.00003890,0.00000578,-0.00002728,0.00003931,-0.01081164,-0.00280788,
 0.00028758,0.00129964,0.00025003,-0.00035564,0.00127400,0.00068153,-0.
 00026311,-0.00000141,0.00003822,0.00000775,-0.30912772,-0.08248803,-0.
 00577859,0.00142720,0.00093762,-0.00039401,0.32834204,0.00000009,0.000
 00095,-0.00000004,0.00000059,-0.00000184,-0.00000160,-0.00000701,0.000
 00415,0.00000356,0.00003489,-0.00000243,0.00001300,-0.00008813,0.00007
 685,-0.00000132,0.00001124,-0.00004819,-0.00002121,0.00017578,-0.00002
 953,0.00003690,-0.00023358,0.00033036,-0.00007119,-0.00024246,-0.00013
 020,0.00001259,0.00042487,-0.00001837,0.00009135,-0.00010382,-0.000176
 32,-0.00007296,-0.00008931,0.00106550,-0.00041505,0.00018193,-0.000000
 84,0.00009637,0.00000045,-0.00000010,-0.00000019,0.00000003,-0.0000000
 4,-0.00000003,0.,-0.00000003,0.00000005,0.00000005,0.00000006,0.000000
 14,0.00000010,0.00000012,0.00000006,0.00000270,-0.00000014,-0.00000212
 ,0.00000133,-0.00000013,-0.00000019,-0.00000127,-0.00000175,-0.0000021
 0,0.00000599,-0.00000987,-0.00002341,0.00001000,0.00000207,0.00002762,
 0.00002122,-0.00000732,-0.00008453,0.00136904,-0.00187759,0.00027237,0
 .00028351,-0.00029506,0.00040368,-0.00000940,-0.00007184,-0.00015168,-
 0.00001324,-0.00000156,0.00003019,-0.08252006,-0.07213316,-0.00168211,
 -0.02701363,-0.00519723,0.00196950,0.08918857,0.07146499,0.00000628,0.
 00001118,0.00000872,0.00000778,-0.00002198,-0.00002779,-0.00009217,0.0
 0008645,0.00000787,0.00050118,-0.00002952,0.00020269,-0.00124387,0.001
 01201,0.00010581,0.00019968,-0.00055530,-0.00022806,0.00218070,0.00010
 292,0.00025060,-0.00172999,-0.00068289,-0.00032438,0.00088995,0.000950
 34,0.00048704,0.00117308,-0.00021124,0.00038881,-0.00035601,-0.0014130
 1,-0.00028121,0.00315861,0.00006428,-0.00483172,-0.00105541,0.00094727
 ,-0.00058929,0.00000771,-0.00000085,-0.00000203,0.00000041,-0.00000136
 ,-0.00000037,0.00000056,-0.00000022,-0.00000060,-0.00000084,0.00000025
 ,0.00000358,0.00000019,0.00000278,0.00000124,0.00004136,-0.00000284,-0
 .00003018,0.00001469,-0.00000513,-0.00000564,-0.00001278,-0.00001939,-
 0.00003996,0.00009154,0.00001638,0.00008877,0.00007858,0.00007051,0.00
 007362,-0.00002392,0.00002584,-0.00018159,0.03095956,0.00987886,-0.001
 95648,-0.00240630,-0.00145253,0.00148913,-0.00291745,0.00021443,0.0013
 6410,0.00000952,-0.00005888,-0.00023629,-0.00564571,-0.00165959,-0.045
 28329,-0.01130823,-0.00155312,0.00046768,0.00373644,0.00160088,0.04751
 717,0.00000042,0.00000043,0.00000092,0.00000001,-0.00000104,-0.0000006
 5,-0.00000236,0.00000412,-0.00000499,0.00001452,-0.00000332,0.00000813
 ,-0.00002868,0.00002960,0.00002609,0.00000104,-0.00001564,-0.00000463,
 0.00005696,0.00001751,-0.00000395,-0.00000808,-0.00009125,-0.00003088,
 0.00000034,0.00016121,0.00001091,-0.00003201,0.00002016,0.00008151,0.0
 0014365,0.00003212,-0.00011326,-0.00006082,0.00043112,-0.00014032,-0.0
 0036486,-0.00027142,0.00007807,0.00000036,0.00000002,0.,0.00000010,-0.
 00000015,0.00000002,0.00000002,0.00000003,-0.00000021,0.00000021,0.000
 00009,0.00000018,0.00000001,0.00000018,-0.00000001,0.00000139,0.000000
 08,-0.00000132,0.00000007,-0.00000030,-0.00000002,-0.00000046,-0.00000
 087,-0.00000068,-0.00001746,-0.00000947,-0.00001240,-0.00000009,0.0000
 0132,0.00000388,0.00002453,0.00002450,-0.00002627,0.00411518,-0.008036
 95,0.00529537,0.00141011,-0.00130430,0.00522898,-0.00027796,-0.0000665
 7,-0.00049631,0.00004065,0.00007660,-0.00003732,-0.13928413,0.10339517
 ,-0.09055666,0.00135540,-0.00266749,0.00257691,-0.01204810,0.01860954,
 -0.01626513,0.14496002,0.00000138,0.00000064,0.00000144,0.00000073,-0.
 00000133,-0.00000194,-0.00000611,0.00000733,-0.00000473,0.00003770,-0.
 00000537,0.00001356,-0.00009197,0.00007732,0.00002607,0.00001907,-0.00
 004374,-0.00002243,0.00016482,0.00000358,0.00002812,-0.00014294,0.0000
 1960,-0.00004294,-0.00000634,0.00001197,0.00000921,0.00014260,-0.00000
 204,0.00003810,-0.00008474,-0.00027831,-0.00007372,-0.00002624,0.00006
 163,-0.00002126,-0.00008800,0.00017295,-0.00004895,0.00000052,-0.00000
 013,-0.00000021,0.,-0.00000003,-0.00000003,0.00000003,0.,-0.00000010,-
 0.00000028,0.00000026,0.,-0.00000010,-0.00000003,0.00000012,0.00000319
 ,-0.00000023,-0.00000265,0.00000091,-0.00000045,-0.00000039,-0.0000015
 6,-0.00000166,-0.00000241,0.00000706,0.00000062,0.00000249,0.00000841,
 0.00000373,0.00000243,0.00000953,0.00002171,-0.00000598,-0.00221644,-0
 .00172092,-0.00100175,0.00021001,0.00171679,-0.00099084,0.00001104,0.0
 0019994,-0.00088532,-0.00005493,-0.00001871,0.00004410,0.10310282,-0.1
 6051165,0.09968008,0.01487496,-0.01340656,0.01689690,-0.00554009,0.007
 05850,-0.00731652,-0.11033503,0.16663457,-0.00000133,-0.00000150,-0.00
 000170,-0.00000099,0.00000344,0.00000386,0.00001403,-0.00001498,0.0000
 0181,-0.00007829,0.00000640,-0.00003305,0.00019328,-0.00015711,-0.0000
 1882,-0.00002673,0.00009413,0.00003828,-0.00035784,-0.00000101,-0.0000
 5327,0.00033466,-0.00013731,0.00007075,0.00009900,-0.00012941,-0.00002
 333,-0.00040422,0.00001591,-0.00013569,0.00010972,0.00034507,0.0002934
 5,0.00006189,-0.00177252,0.00084642,0.00050099,0.00014298,0.00004872,-
 0.00000111,0.00000020,0.00000038,0.,0.00000002,0.00000009,-0.00000009,
 0.00000005,0.00000001,-0.00000005,-0.00000012,-0.00000029,-0.00000009,
 -0.00000039,-0.00000014,-0.00000648,0.00000041,0.00000481,-0.00000204,
 0.00000056,0.00000080,0.00000235,0.00000331,0.00000555,0.00001649,0.00
 001947,0.00000626,-0.00000955,-0.00000567,-0.00003491,-0.00000703,-0.0
 0002449,0.00004428,-0.01645722,0.01718682,-0.01429775,0.00038168,0.002
 98276,-0.00860527,0.00161975,-0.00109979,0.00241948,0.00004365,-0.0000
 6048,-0.00005837,-0.08924743,0.09793289,-0.13151052,0.00763275,-0.0069
 8060,0.00864404,0.00120625,-0.00202854,0.00156206,0.09438402,-0.106320
 47,0.14078207\\0.00000032,-0.00000335,0.00000206,0.00000091,-0.0000017
 9,-0.00000038,0.00000450,-0.00000008,0.00000179,0.00000119,-0.00000375
 ,-0.00000187,0.00000068,-0.00000192,-0.00000103,-0.00000128,-0.0000037
 4,0.00000364,-0.00000269,0.00000018,-0.00000202,0.00000200,-0.00000222
 ,-0.00000197,-0.00000109,0.00000214,0.00000072,0.00000007,0.00000039,-
 0.00000194,0.00000169,0.00000199,-0.00000311,-0.00000102,0.00000254,0.
 00000221,-0.00000254,0.00000253,0.00000124,0.00000045,-0.00000246,0.00
 000080,0.00000003,-0.00000307,0.00000373,0.00000093,-0.00000519,0.0000
 0057,-0.00000058,-0.00000033,0.00000111,0.00000104,-0.00000128,-0.0000
 0126,0.00000105,-0.00000377,0.00000096,0.00000042,-0.00000240,0.000002
 84,-0.00000056,0.00000361,-0.00000001,-0.00000269,0.00000052,0.0000034
 7,0.00000109,0.00000037,-0.00000445,0.00000092,0.00000029,-0.00000363,
 -0.00000406,0.00000578,-0.00000087,0.00000232,-0.00000380,-0.00000055,
 0.00000100,0.00000019,0.00000265,-0.00000130,-0.00000014,0.00000306,-0
 .00000412,0.00000502,-0.00000514,-0.00000024,0.00000599,-0.00000310,0.
 00000038,0.00000432,0.,0.00000118,0.00000343,0.00000048\\\@


 LOVE IS BLIND, THAT'S WHY ALL THE WORLD LOVES A LOUVER.
 Job cpu time:       0 days  2 hours 57 minutes 31.3 seconds.
 File lengths (MBytes):  RWF=    559 Int=      0 D2E=      0 Chk=     19 Scr=      1
 Normal termination of Gaussian 09 at Tue Oct 30 15:30:30 2018.
WARNING: pbs_rusage is deprecated and values produced may not be accurate


=============================================================================
                                     Resource usage:
                                       CPU time:              21:01:21
   JobId:    1828123.r-man2            Elapsed time:          05:16:28
   Project:             q95            Requested time:        34:00:00
   Service Units:     21.10 
                                       Max physical memory:      675MB
                                       Max virtual memory:      1474MB
                                       Requested memory:           0MB

                                       Number of cpus:               4

                                       Max jobfs disk use:       0.5GB
                                       Requested jobfs:         16.0GB
=============================================================================

