 Entering Gaussian System, Link 0=/apps/gaussian/g09e01/g09/g09
 AtFile(1): /home/507/hio507/Basis/6-31pGd.gbs
 Initial command:
 /apps/gaussian/g09e01/g09/l1.exe "/jobfs/local/1874224.r-man2/Gau-57321.inp" -scrdir="/jobfs/local/1874224.r-man2/"
 Entering Link 1 = /apps/gaussian/g09e01/g09/l1.exe PID=     57325.
  
 Copyright (c) 1988,1990,1992,1993,1995,1998,2003,2009,2015,
            Gaussian, Inc.  All Rights Reserved.
  
 This is part of the Gaussian(R) 09 program.  It is based on
 the Gaussian(R) 03 system (copyright 2003, Gaussian, Inc.),
 the Gaussian(R) 98 system (copyright 1998, Gaussian, Inc.),
 the Gaussian(R) 94 system (copyright 1995, Gaussian, Inc.),
 the Gaussian 92(TM) system (copyright 1992, Gaussian, Inc.),
 the Gaussian 90(TM) system (copyright 1990, Gaussian, Inc.),
 the Gaussian 88(TM) system (copyright 1988, Gaussian, Inc.),
 the Gaussian 86(TM) system (copyright 1986, Carnegie Mellon
 University), and the Gaussian 82(TM) system (copyright 1983,
 Carnegie Mellon University). Gaussian is a federally registered
 trademark of Gaussian, Inc.
  
 This software contains proprietary and confidential information,
 including trade secrets, belonging to Gaussian, Inc.
  
 This software is provided under written license and may be
 used, copied, transmitted, or stored only in accord with that
 written license.
  
 The following legend is applicable only to US Government
 contracts under FAR:
  
                    RESTRICTED RIGHTS LEGEND
  
 Use, reproduction and disclosure by the US Government is
 subject to restrictions as set forth in subparagraphs (a)
 and (c) of the Commercial Computer Software - Restricted
 Rights clause in FAR 52.227-19.
  
 Gaussian, Inc.
 340 Quinnipiac St., Bldg. 40, Wallingford CT 06492
  
  
 ---------------------------------------------------------------
 Warning -- This program may not be used in any manner that
 competes with the business of Gaussian, Inc. or will provide
 assistance to any competitor of Gaussian, Inc.  The licensee
 of this program is prohibited from giving any competitor of
 Gaussian, Inc. access to this program.  By using this program,
 the user acknowledges that Gaussian, Inc. is engaged in the
 business of creating and licensing software in the field of
 computational chemistry and represents and warrants to the
 licensee that it is not a competitor of Gaussian, Inc. and that
 it will not use this program in any manner prohibited above.
 ---------------------------------------------------------------
  

 Cite this work as:
 Gaussian 09, Revision E.01,
 M. J. Frisch, G. W. Trucks, H. B. Schlegel, G. E. Scuseria, 
 M. A. Robb, J. R. Cheeseman, G. Scalmani, V. Barone, B. Mennucci, 
 G. A. Petersson, H. Nakatsuji, M. Caricato, X. Li, H. P. Hratchian, 
 A. F. Izmaylov, J. Bloino, G. Zheng, J. L. Sonnenberg, M. Hada, 
 M. Ehara, K. Toyota, R. Fukuda, J. Hasegawa, M. Ishida, T. Nakajima, 
 Y. Honda, O. Kitao, H. Nakai, T. Vreven, J. A. Montgomery, Jr., 
 J. E. Peralta, F. Ogliaro, M. Bearpark, J. J. Heyd, E. Brothers, 
 K. N. Kudin, V. N. Staroverov, T. Keith, R. Kobayashi, J. Normand, 
 K. Raghavachari, A. Rendell, J. C. Burant, S. S. Iyengar, J. Tomasi, 
 M. Cossi, N. Rega, J. M. Millam, M. Klene, J. E. Knox, J. B. Cross, 
 V. Bakken, C. Adamo, J. Jaramillo, R. Gomperts, R. E. Stratmann, 
 O. Yazyev, A. J. Austin, R. Cammi, C. Pomelli, J. W. Ochterski, 
 R. L. Martin, K. Morokuma, V. G. Zakrzewski, G. A. Voth, 
 P. Salvador, J. J. Dannenberg, S. Dapprich, A. D. Daniels, 
 O. Farkas, J. B. Foresman, J. V. Ortiz, J. Cioslowski, 
 and D. J. Fox, Gaussian, Inc., Wallingford CT, 2013.
 
 ******************************************
 Gaussian 09:  ES64L-G09RevE.01 30-Nov-2015
                31-Oct-2018 
 ******************************************
 %chk=4SulfOxyMethyl_a1.M062X_6-31pGd_opt.chk
 %mem=196608000
 %nproc=4
 Will use up to    4 processors via shared memory.
 ----------------------------------------------------------------------
 # M062X/Gen 6D SCF=Tight INT(grid=ultrafine) OPT IOP(2/17=4) maxdisk=2
 147483648
 ----------------------------------------------------------------------
 1/14=-1,18=20,19=15,26=4,38=1/1,3;
 2/9=110,12=2,17=4,18=5,40=1/2;
 3/5=7,8=2,11=2,16=1,25=1,30=1,71=1,74=-55,75=-5/1,2,3;
 4//1;
 5/5=2,32=2,38=5/2;
 6/7=2,8=2,9=2,10=2,28=1/1;
 7//1,2,3,16;
 1/14=-1,18=20,19=15,26=4/3(2);
 2/9=110,17=4/2;
 99//99;
 2/9=110,17=4/2;
 3/5=7,6=1,8=2,11=2,16=1,25=1,30=1,71=1,74=-55,75=-5,82=7/1,2,3;
 4/5=5,16=3,69=1/1;
 5/5=2,32=2,38=5/2;
 7//1,2,3,16;
 1/14=-1,18=20,19=15,26=4/3(-5);
 2/9=110,17=4/2;
 6/7=2,8=2,9=2,10=2,19=2,28=1/1;
 99/9=1/99;
 -----------------------------------
 4SulfOxyMethyl_a1.M062X_6-31pGd_opt
 -----------------------------------
 Symbolic Z-matrix:
 Charge = -1 Multiplicity = 1
 C                    -1.95468   1.70601   0.22537 
 C                    -0.6192    1.35336  -0.42249 
 C                     0.52966   2.12094   0.21555 
 N                     1.79742   1.7544   -0.4024 
 C                     2.98426   2.25912   0.09955 
 O                     2.93461   3.30757   0.8039 
 N                     4.06924   1.52494  -0.21372 
 C                     5.3265    2.04186  -0.06473 
 C                     5.67175   3.4209   -0.12674 
 C                     6.40027   1.12113   0.07803 
 C                     7.71645   1.53328   0.17293 
 C                     8.01213   2.90106   0.12472 
 C                     6.98965   3.84012  -0.0408 
 H                    -2.77777   1.15646  -0.24145 
 H                    -2.16651   2.7767    0.12745 
 H                    -1.94914   1.4609    1.29334 
 H                    -0.65165   1.57784  -1.49569 
 H                    -0.43181   0.27598  -0.32554 
 H                     0.55058   1.92252   1.29791 
 H                     0.36843   3.1964    0.08972 
 H                     1.86109   0.79282  -0.7191 
 H                     4.89242   4.16072  -0.26185 
 H                     6.16483   0.06125   0.11726 
 H                     8.51111   0.80161   0.29145 
 S                     9.68391   3.43057   0.17276 
 O                     10.47379   2.44884   0.94646 
 O                     9.7261    4.83794   0.62151 
 H                     7.22545   4.89934  -0.10037 
 C                     10.27066   3.38393  -1.50517 
 H                     10.18905   2.35767  -1.86941 
 H                     11.31367   3.71101  -1.48966 
 H                     9.6582    4.06292  -2.10189 
 

 GradGradGradGradGradGradGradGradGradGradGradGradGradGradGradGradGradGrad
 Berny optimization.
 Initialization pass.
                           ----------------------------
                           !    Initial Parameters    !
                           ! (Angstroms and Degrees)  !
 --------------------------                            --------------------------
 ! Name  Definition              Value          Derivative Info.                !
 --------------------------------------------------------------------------------
 ! R1    R(1,2)                  1.5256         estimate D2E/DX2                !
 ! R2    R(1,14)                 1.0943         estimate D2E/DX2                !
 ! R3    R(1,15)                 1.0958         estimate D2E/DX2                !
 ! R4    R(1,16)                 1.0957         estimate D2E/DX2                !
 ! R5    R(2,3)                  1.5219         estimate D2E/DX2                !
 ! R6    R(2,17)                 1.0969         estimate D2E/DX2                !
 ! R7    R(2,18)                 1.0978         estimate D2E/DX2                !
 ! R8    R(3,4)                  1.4572         estimate D2E/DX2                !
 ! R9    R(3,19)                 1.1006         estimate D2E/DX2                !
 ! R10   R(3,20)                 1.0947         estimate D2E/DX2                !
 ! R11   R(4,5)                  1.3839         estimate D2E/DX2                !
 ! R12   R(4,21)                 1.0144         estimate D2E/DX2                !
 ! R13   R(5,6)                  1.264          estimate D2E/DX2                !
 ! R14   R(5,7)                  1.347          estimate D2E/DX2                !
 ! R15   R(7,8)                  1.3675         estimate D2E/DX2                !
 ! R16   R(8,9)                  1.4229         estimate D2E/DX2                !
 ! R17   R(8,10)                 1.4217         estimate D2E/DX2                !
 ! R18   R(9,13)                 1.3856         estimate D2E/DX2                !
 ! R19   R(9,22)                 1.083          estimate D2E/DX2                !
 ! R20   R(10,11)                1.3825         estimate D2E/DX2                !
 ! R21   R(10,23)                1.0864         estimate D2E/DX2                !
 ! R22   R(11,12)                1.4002         estimate D2E/DX2                !
 ! R23   R(11,24)                1.0867         estimate D2E/DX2                !
 ! R24   R(12,13)                1.3981         estimate D2E/DX2                !
 ! R25   R(12,25)                1.7543         estimate D2E/DX2                !
 ! R26   R(13,28)                1.0868         estimate D2E/DX2                !
 ! R27   R(25,26)                1.4786         estimate D2E/DX2                !
 ! R28   R(25,27)                1.4778         estimate D2E/DX2                !
 ! R29   R(25,29)                1.7782         estimate D2E/DX2                !
 ! R30   R(29,30)                1.092          estimate D2E/DX2                !
 ! R31   R(29,31)                1.0932         estimate D2E/DX2                !
 ! R32   R(29,32)                1.0919         estimate D2E/DX2                !
 ! A1    A(2,1,14)             111.1733         estimate D2E/DX2                !
 ! A2    A(2,1,15)             110.9231         estimate D2E/DX2                !
 ! A3    A(2,1,16)             110.962          estimate D2E/DX2                !
 ! A4    A(14,1,15)            107.8884         estimate D2E/DX2                !
 ! A5    A(14,1,16)            107.894          estimate D2E/DX2                !
 ! A6    A(15,1,16)            107.8561         estimate D2E/DX2                !
 ! A7    A(1,2,3)              111.4804         estimate D2E/DX2                !
 ! A8    A(1,2,17)             110.0153         estimate D2E/DX2                !
 ! A9    A(1,2,18)             109.8009         estimate D2E/DX2                !
 ! A10   A(3,2,17)             109.2262         estimate D2E/DX2                !
 ! A11   A(3,2,18)             109.2133         estimate D2E/DX2                !
 ! A12   A(17,2,18)            106.9945         estimate D2E/DX2                !
 ! A13   A(2,3,4)              110.6156         estimate D2E/DX2                !
 ! A14   A(2,3,19)             109.616          estimate D2E/DX2                !
 ! A15   A(2,3,20)             109.6404         estimate D2E/DX2                !
 ! A16   A(4,3,19)             110.803          estimate D2E/DX2                !
 ! A17   A(4,3,20)             109.0566         estimate D2E/DX2                !
 ! A18   A(19,3,20)            107.0341         estimate D2E/DX2                !
 ! A19   A(3,4,5)              120.0363         estimate D2E/DX2                !
 ! A20   A(3,4,21)             115.1788         estimate D2E/DX2                !
 ! A21   A(5,4,21)             113.8987         estimate D2E/DX2                !
 ! A22   A(4,5,6)              118.0934         estimate D2E/DX2                !
 ! A23   A(4,5,7)              114.0566         estimate D2E/DX2                !
 ! A24   A(6,5,7)              127.8305         estimate D2E/DX2                !
 ! A25   A(5,7,8)              120.6088         estimate D2E/DX2                !
 ! A26   A(7,8,9)              125.7786         estimate D2E/DX2                !
 ! A27   A(7,8,10)             117.4213         estimate D2E/DX2                !
 ! A28   A(9,8,10)             116.6651         estimate D2E/DX2                !
 ! A29   A(8,9,13)             121.4182         estimate D2E/DX2                !
 ! A30   A(8,9,22)             119.5295         estimate D2E/DX2                !
 ! A31   A(13,9,22)            119.043          estimate D2E/DX2                !
 ! A32   A(8,10,11)            122.2014         estimate D2E/DX2                !
 ! A33   A(8,10,23)            118.149          estimate D2E/DX2                !
 ! A34   A(11,10,23)           119.649          estimate D2E/DX2                !
 ! A35   A(10,11,12)           119.3345         estimate D2E/DX2                !
 ! A36   A(10,11,24)           120.1966         estimate D2E/DX2                !
 ! A37   A(12,11,24)           120.4673         estimate D2E/DX2                !
 ! A38   A(11,12,13)           120.3815         estimate D2E/DX2                !
 ! A39   A(11,12,25)           119.6793         estimate D2E/DX2                !
 ! A40   A(13,12,25)           119.8307         estimate D2E/DX2                !
 ! A41   A(9,13,12)            119.9806         estimate D2E/DX2                !
 ! A42   A(9,13,28)            119.8576         estimate D2E/DX2                !
 ! A43   A(12,13,28)           120.1618         estimate D2E/DX2                !
 ! A44   A(12,25,26)           108.8444         estimate D2E/DX2                !
 ! A45   A(12,25,27)           108.843          estimate D2E/DX2                !
 ! A46   A(12,25,29)           106.3015         estimate D2E/DX2                !
 ! A47   A(26,25,27)           117.2695         estimate D2E/DX2                !
 ! A48   A(26,25,29)           107.462          estimate D2E/DX2                !
 ! A49   A(27,25,29)           107.5839         estimate D2E/DX2                !
 ! A50   A(25,29,30)           108.3448         estimate D2E/DX2                !
 ! A51   A(25,29,31)           107.0728         estimate D2E/DX2                !
 ! A52   A(25,29,32)           108.3187         estimate D2E/DX2                !
 ! A53   A(30,29,31)           110.9283         estimate D2E/DX2                !
 ! A54   A(30,29,32)           111.1126         estimate D2E/DX2                !
 ! A55   A(31,29,32)           110.9072         estimate D2E/DX2                !
 ! D1    D(14,1,2,3)           179.6237         estimate D2E/DX2                !
 ! D2    D(14,1,2,17)           58.2933         estimate D2E/DX2                !
 ! D3    D(14,1,2,18)          -59.208          estimate D2E/DX2                !
 ! D4    D(15,1,2,3)            59.5745         estimate D2E/DX2                !
 ! D5    D(15,1,2,17)          -61.7559         estimate D2E/DX2                !
 ! D6    D(15,1,2,18)         -179.2572         estimate D2E/DX2                !
 ! D7    D(16,1,2,3)           -60.294          estimate D2E/DX2                !
 ! D8    D(16,1,2,17)          178.3757         estimate D2E/DX2                !
 ! D9    D(16,1,2,18)           60.8744         estimate D2E/DX2                !
 ! D10   D(1,2,3,4)            179.0955         estimate D2E/DX2                !
 ! D11   D(1,2,3,19)            56.6222         estimate D2E/DX2                !
 ! D12   D(1,2,3,20)           -60.5968         estimate D2E/DX2                !
 ! D13   D(17,2,3,4)           -59.1161         estimate D2E/DX2                !
 ! D14   D(17,2,3,19)          178.4105         estimate D2E/DX2                !
 ! D15   D(17,2,3,20)           61.1916         estimate D2E/DX2                !
 ! D16   D(18,2,3,4)            57.5854         estimate D2E/DX2                !
 ! D17   D(18,2,3,19)          -64.888          estimate D2E/DX2                !
 ! D18   D(18,2,3,20)          177.8931         estimate D2E/DX2                !
 ! D19   D(2,3,4,5)           -174.9563         estimate D2E/DX2                !
 ! D20   D(2,3,4,21)           -32.8722         estimate D2E/DX2                !
 ! D21   D(19,3,4,5)           -53.1788         estimate D2E/DX2                !
 ! D22   D(19,3,4,21)           88.9052         estimate D2E/DX2                !
 ! D23   D(20,3,4,5)            64.3878         estimate D2E/DX2                !
 ! D24   D(20,3,4,21)         -153.5282         estimate D2E/DX2                !
 ! D25   D(3,4,5,6)            -20.6126         estimate D2E/DX2                !
 ! D26   D(3,4,5,7)            157.9055         estimate D2E/DX2                !
 ! D27   D(21,4,5,6)          -163.1483         estimate D2E/DX2                !
 ! D28   D(21,4,5,7)            15.3699         estimate D2E/DX2                !
 ! D29   D(4,5,7,8)            164.7544         estimate D2E/DX2                !
 ! D30   D(6,5,7,8)            -16.9007         estimate D2E/DX2                !
 ! D31   D(5,7,8,9)            -27.3199         estimate D2E/DX2                !
 ! D32   D(5,7,8,10)           157.0608         estimate D2E/DX2                !
 ! D33   D(7,8,9,13)          -176.1566         estimate D2E/DX2                !
 ! D34   D(7,8,9,22)             2.7242         estimate D2E/DX2                !
 ! D35   D(10,8,9,13)           -0.5079         estimate D2E/DX2                !
 ! D36   D(10,8,9,22)          178.3729         estimate D2E/DX2                !
 ! D37   D(7,8,10,11)          176.9581         estimate D2E/DX2                !
 ! D38   D(7,8,10,23)           -3.3365         estimate D2E/DX2                !
 ! D39   D(9,8,10,11)            0.9344         estimate D2E/DX2                !
 ! D40   D(9,8,10,23)         -179.3602         estimate D2E/DX2                !
 ! D41   D(8,9,13,12)           -0.6891         estimate D2E/DX2                !
 ! D42   D(8,9,13,28)          179.4317         estimate D2E/DX2                !
 ! D43   D(22,9,13,12)        -179.5752         estimate D2E/DX2                !
 ! D44   D(22,9,13,28)           0.5456         estimate D2E/DX2                !
 ! D45   D(8,10,11,12)          -0.1515         estimate D2E/DX2                !
 ! D46   D(8,10,11,24)         179.3772         estimate D2E/DX2                !
 ! D47   D(23,10,11,12)       -179.8526         estimate D2E/DX2                !
 ! D48   D(23,10,11,24)         -0.3239         estimate D2E/DX2                !
 ! D49   D(10,11,12,13)         -1.0936         estimate D2E/DX2                !
 ! D50   D(10,11,12,25)       -177.3007         estimate D2E/DX2                !
 ! D51   D(24,11,12,13)        179.379          estimate D2E/DX2                !
 ! D52   D(24,11,12,25)          3.1719         estimate D2E/DX2                !
 ! D53   D(11,12,13,9)           1.512          estimate D2E/DX2                !
 ! D54   D(11,12,13,28)       -178.6091         estimate D2E/DX2                !
 ! D55   D(25,12,13,9)         177.7134         estimate D2E/DX2                !
 ! D56   D(25,12,13,28)         -2.4078         estimate D2E/DX2                !
 ! D57   D(11,12,25,26)        -29.7719         estimate D2E/DX2                !
 ! D58   D(11,12,25,27)       -158.6755         estimate D2E/DX2                !
 ! D59   D(11,12,25,29)         85.7057         estimate D2E/DX2                !
 ! D60   D(13,12,25,26)        153.9999         estimate D2E/DX2                !
 ! D61   D(13,12,25,27)         25.0964         estimate D2E/DX2                !
 ! D62   D(13,12,25,29)        -90.5225         estimate D2E/DX2                !
 ! D63   D(12,25,29,30)        -60.2296         estimate D2E/DX2                !
 ! D64   D(12,25,29,31)       -179.933          estimate D2E/DX2                !
 ! D65   D(12,25,29,32)         60.4028         estimate D2E/DX2                !
 ! D66   D(26,25,29,30)         56.1796         estimate D2E/DX2                !
 ! D67   D(26,25,29,31)        -63.5237         estimate D2E/DX2                !
 ! D68   D(26,25,29,32)        176.8121         estimate D2E/DX2                !
 ! D69   D(27,25,29,30)       -176.6963         estimate D2E/DX2                !
 ! D70   D(27,25,29,31)         63.6003         estimate D2E/DX2                !
 ! D71   D(27,25,29,32)        -56.0639         estimate D2E/DX2                !
 --------------------------------------------------------------------------------
 Trust Radius=3.00D-01 FncErr=1.00D-07 GrdErr=1.00D-06
 Number of steps in this run=    168 maximum allowed number of steps=    192.
 GradGradGradGradGradGradGradGradGradGradGradGradGradGradGradGradGradGrad

                          Input orientation:                          
 ---------------------------------------------------------------------
 Center     Atomic      Atomic             Coordinates (Angstroms)
 Number     Number       Type             X           Y           Z
 ---------------------------------------------------------------------
      1          6           0       -1.954680    1.706009    0.225373
      2          6           0       -0.619198    1.353359   -0.422491
      3          6           0        0.529660    2.120940    0.215548
      4          7           0        1.797417    1.754399   -0.402404
      5          6           0        2.984261    2.259122    0.099548
      6          8           0        2.934608    3.307572    0.803898
      7          7           0        4.069243    1.524937   -0.213725
      8          6           0        5.326500    2.041860   -0.064726
      9          6           0        5.671751    3.420897   -0.126736
     10          6           0        6.400274    1.121134    0.078027
     11          6           0        7.716448    1.533282    0.172927
     12          6           0        8.012129    2.901056    0.124723
     13          6           0        6.989649    3.840123   -0.040799
     14          1           0       -2.777774    1.156458   -0.241448
     15          1           0       -2.166515    2.776697    0.127454
     16          1           0       -1.949136    1.460901    1.293339
     17          1           0       -0.651649    1.577836   -1.495690
     18          1           0       -0.431808    0.275979   -0.325544
     19          1           0        0.550580    1.922518    1.297911
     20          1           0        0.368427    3.196404    0.089724
     21          1           0        1.861086    0.792822   -0.719097
     22          1           0        4.892423    4.160723   -0.261849
     23          1           0        6.164835    0.061253    0.117259
     24          1           0        8.511113    0.801608    0.291449
     25         16           0        9.683912    3.430570    0.172765
     26          8           0       10.473793    2.448837    0.946462
     27          8           0        9.726098    4.837941    0.621507
     28          1           0        7.225454    4.899341   -0.100371
     29          6           0       10.270655    3.383927   -1.505166
     30          1           0       10.189055    2.357668   -1.869407
     31          1           0       11.313670    3.711012   -1.489659
     32          1           0        9.658199    4.062924   -2.101892
 ---------------------------------------------------------------------
                    Distance matrix (angstroms):
                    1          2          3          4          5
     1  C    0.000000
     2  C    1.525648   0.000000
     3  C    2.518771   1.521890   0.000000
     4  N    3.804559   2.449747   1.457198   0.000000
     5  C    4.971408   3.752045   2.461223   1.383944   0.000000
     6  O    5.177338   4.237041   2.745547   2.271721   1.264050
     7  N    6.042618   4.696221   3.614989   2.291167   1.346979
     8  C    7.294692   5.996112   4.805672   3.556837   2.358023
     9  C    7.824785   6.628591   5.314899   4.226544   2.936585
    10  C    8.376696   7.041124   5.956730   4.670989   3.600643
    11  C    9.672812   8.358821   7.210900   5.951036   4.788092
    12  C   10.038703   8.786047   7.523575   6.341557   5.068745
    13  C    9.199256   8.014003   6.689751   5.607164   4.308411
    14  H    1.094263   2.175086   3.475369   4.616905   5.876495
    15  H    1.095826   2.173136   2.776172   4.127783   5.176789
    16  H    1.095746   2.173563   2.782393   4.122904   5.138161
    17  H    2.162493   1.096904   2.149136   2.687819   4.028495
    18  H    2.160471   1.097844   2.149671   2.676019   3.972794
    19  H    2.733777   2.156874   1.100599   2.115168   2.733528
    20  H    2.763422   2.152808   1.094737   2.088918   2.778701
    21  H    4.035591   2.560074   2.100037   1.014386   2.020331
    22  H    7.290118   6.187493   4.839662   3.922909   2.718047
    23  H    8.285133   6.927046   6.000598   4.712869   3.866134
    24  H   10.505005   9.174787   8.090118   6.816375   5.719027
    25  S   11.765785  10.527261   9.247557   8.083142   6.801690
    26  O   12.471515  11.230696   9.976349   8.808018   7.539651
    27  O   12.099855  10.966193   9.597988   8.568583   7.237066
    28  H    9.725139   8.614889   7.256237   6.280563   4.999844
    29  C   12.460698  11.130332   9.972111   8.698691   7.545319
    30  H   12.340302  10.950823   9.884685   8.540236   7.469642
    31  H   13.528137  12.210271  11.033175   9.775968   8.603059
    32  H   12.076016  10.760438   9.616240   8.367165   7.255446
                    6          7          8          9         10
     6  O    0.000000
     7  N    2.345365   0.000000
     8  C    2.842126   1.367518   0.000000
     9  C    2.893246   2.484001   1.422949   0.000000
    10  C    4.161519   2.383670   1.421656   2.421071   0.000000
    11  C    5.139282   3.667652   2.454991   2.798870   1.382456
    12  C    5.138848   4.189822   2.826077   2.410568   2.401746
    13  C    4.176181   3.730786   2.449569   1.385638   2.784670
    14  H    6.192847   6.856981   8.154412   8.748447   9.183675
    15  H    5.173090   6.369299   7.531413   7.868800   8.725434
    16  H    5.244111   6.204532   7.424065   7.996006   8.444233
    17  H    4.597970   4.892142   6.164515   6.727280   7.239805
    18  H    4.668935   4.672458   6.028638   6.869023   6.895977
    19  H    2.801074   3.850208   4.967941   5.522785   6.029034
    20  H    2.666024   4.072090   5.093065   5.312485   6.378876
    21  H    3.129846   2.380620   3.741310   4.666781   4.620328
    22  H    2.386781   2.761758   2.171833   1.083028   3.410019
    23  H    4.630813   2.577485   2.158409   3.404390   1.086425
    24  H    6.135134   4.528644   3.436109   3.885554   2.145528
    25  S    6.779865   5.941829   4.579515   4.023336   4.015564
    26  O    7.589272   6.574031   5.261440   5.015601   4.371559
    27  O    6.964168   6.608602   5.257894   4.359543   5.017084
    28  H    4.665060   4.621809   3.431106   2.144874   3.871382
    29  C    7.691242   6.601605   5.321718   4.801183   4.754639
    30  H    7.789472   6.394281   5.196253   4.957156   4.435807
    31  H    8.696658   7.673895   6.376732   5.811452   5.771185
    32  H    7.363481   6.422070   5.195995   4.495020   4.901046
                   11         12         13         14         15
    11  C    0.000000
    12  C    1.400199   0.000000
    13  C    2.428051   1.398109   0.000000
    14  H   10.509158  10.936166  10.131381   0.000000
    15  H    9.960979  10.179404   9.219247   1.770565   0.000000
    16  H    9.730574  10.132449   9.345721   1.770564   1.771401
    17  H    8.532954   8.912783   8.100870   2.504215   2.523228
    18  H    8.259743   8.854031   8.237854   2.507164   3.077012
    19  H    7.264073   7.616340   6.850618   3.746253   3.079317
    20  H    7.534342   7.649486   6.653721   3.764258   2.569729
    21  H    5.969025   6.556830   6.004024   4.677542   4.568804
    22  H    3.881699   3.386556   2.133074   8.237594   7.203866
    23  H    2.139503   3.387777   3.871067   9.016562   8.762712
    24  H    1.086686   2.164362   3.414354  11.307028  10.860000
    25  S    2.733243   1.754295   2.733568  12.674257  11.868539
    26  O    3.006584   2.634301   3.879383  13.367326  12.671055
    27  O    3.893673   2.633630   2.987045  13.063110  12.080027
    28  H    3.412641   2.159321   1.086782  10.681462   9.631541
    29  C    3.572794   2.826773   3.621807  13.297373  12.558558
    30  H    3.311273   3.001805   3.972112  13.123712  12.522904
    31  H    4.521804   3.763301   4.562129  14.375416  13.608945
    32  H    3.917178   3.002882   3.379187  12.905899  12.101579
                   16         17         18         19         20
    16  H    0.000000
    17  H    3.078284   0.000000
    18  H    2.515374   1.764201   0.000000
    19  H    2.541986   3.060779   2.512326   0.000000
    20  H    3.135563   2.484724   3.056421   1.765128   0.000000
    21  H    4.360506   2.744664   2.383144   2.657435   2.942690
    22  H    7.517618   6.239423   6.591110   5.127769   4.638971
    23  H    8.317373   7.167013   6.614974   6.031426   6.590013
    24  H   10.528783   9.367636   8.979578   8.101821   8.489940
    25  S   11.851713  10.632036  10.607901   9.325124   9.318798
    26  O   12.466976  11.423581  11.192473   9.943374  10.169133
    27  O   12.172381  11.081897  11.175485   9.651288   9.515432
    28  H    9.896383   8.661874   8.947617   7.441143   7.067881
    29  C   12.682782  11.070627  11.206854  10.221195  10.031598
    30  H   12.575485  10.875139  10.932506  10.154874  10.049199
    31  H   13.737180  12.153984  12.292717  11.261144  11.070575
    32  H   12.370463  10.622434  10.922665   9.954332   9.584044
                   21         22         23         24         25
    21  H    0.000000
    22  H    4.554211   0.000000
    23  H    4.444878   4.309107   0.000000
    24  H    6.726377   4.968370   2.466474   0.000000
    25  S    8.303599   4.866249   4.872298   2.881143   0.000000
    26  O    8.927217   5.961732   4.995524   2.644715   1.478620
    27  O    8.945313   4.960177   5.979433   4.228133   1.477783
    28  H    6.784008   2.452481   4.957759   4.312523   2.876788
    29  C    8.834738   5.574462   5.525413   3.604468   1.778172
    30  H    8.551435   5.821474   5.041301   3.147398   2.361515
    31  H    9.922750   6.553028   6.512560   4.414896   2.344870
    32  H    8.567419   5.109593   5.756874   4.204767   2.361058
                   26         27         28         29         30
    26  O    0.000000
    27  O    2.524373   0.000000
    28  H    4.201492   2.603478   0.000000
    29  C    2.631756   2.633142   3.680106   0.000000
    30  H    2.831697   3.545523   4.286318   1.092034   0.000000
    31  H    2.869350   2.871824   4.478366   1.093209   1.800141
    32  H    3.544422   2.832342   3.259437   1.091889   1.801042
                   31         32
    31  H    0.000000
    32  H    1.799793   0.000000
 Stoichiometry    C11H15N2O3S(1-)
 Framework group  C1[X(C11H15N2O3S)]
 Deg. of freedom    90
 Full point group                 C1      NOp   1
 Largest Abelian subgroup         C1      NOp   1
 Largest concise Abelian subgroup C1      NOp   1
                         Standard orientation:                         
 ---------------------------------------------------------------------
 Center     Atomic      Atomic             Coordinates (Angstroms)
 Number     Number       Type             X           Y           Z
 ---------------------------------------------------------------------
      1          6           0       -7.497156   -0.296620   -0.148125
      2          6           0       -6.231734    0.344435    0.413444
      3          6           0       -4.978548   -0.322290   -0.135328
      4          7           0       -3.782193    0.317749    0.396188
      5          6           0       -2.531925   -0.066676   -0.055861
      6          8           0       -2.419691   -1.200240   -0.603818
      7          7           0       -1.572903    0.861471    0.126276
      8          6           0       -0.251067    0.526307    0.023704
      9          6           0        0.302539   -0.760786    0.272091
     10          6           0        0.667991    1.569973   -0.271591
     11          6           0        2.031917    1.353986   -0.336730
     12          6           0        2.534806    0.068377   -0.102491
     13          6           0        1.669262   -0.982151    0.216782
     14          1           0       -8.394934    0.182068    0.254695
     15          1           0       -7.541477   -1.361958    0.104711
     16          1           0       -7.529792   -0.208760   -1.239855
     17          1           0       -6.228861    0.273396    1.508042
     18          1           0       -6.212597    1.412730    0.161171
     19          1           0       -4.988803   -0.279799   -1.235058
     20          1           0       -4.972126   -1.380596    0.144669
     21          1           0       -3.867322    1.313075    0.572424
     22          1           0       -0.353461   -1.583755    0.527699
     23          1           0        0.272063    2.564954   -0.454820
     24          1           0        2.704333    2.173693   -0.575111
     25         16           0        4.268192   -0.201478   -0.112629
     26          8           0        4.897139    0.768370   -1.034657
     27          8           0        4.526548   -1.635497   -0.358974
     28          1           0        2.065455   -1.973519    0.420041
     29          6           0        4.841296    0.173456    1.528369
     30          1           0        4.602683    1.216688    1.745777
     31          1           0        5.922245    0.010366    1.535899
     32          1           0        4.340956   -0.498596    2.228530
 ---------------------------------------------------------------------
 Rotational constants (GHZ):      1.8538917      0.1239318      0.1205599
 General basis read from cards:  (6D, 7F)
 There are   357 symmetry adapted cartesian basis functions of A   symmetry.
 There are   357 symmetry adapted basis functions of A   symmetry.
   357 basis functions,   628 primitive gaussians,   357 cartesian basis functions
    68 alpha electrons       68 beta electrons
       nuclear repulsion energy      1279.1065772220 Hartrees.
 NAtoms=   32 NActive=   32 NUniq=   32 SFac= 1.00D+00 NAtFMM=   60 NAOKFM=F Big=F
 Integral buffers will be    131072 words long.
 Raffenetti 2 integral format.
 Two-electron integral symmetry is turned on.
 One-electron integrals computed using PRISM.
 NBasis=   357 RedAO= T EigKep=  1.34D-06  NBF=   357
 NBsUse=   357 1.00D-06 EigRej= -1.00D+00 NBFU=   357
 ExpMin= 4.05D-02 ExpMax= 2.19D+04 ExpMxC= 3.30D+03 IAcc=3 IRadAn=         5 AccDes= 0.00D+00
 Harris functional with IExCor= 1009 and IRadAn=       5 diagonalized for initial guess.
 HarFok:  IExCor= 1009 AccDes= 0.00D+00 IRadAn=         5 IDoV= 1 UseB2=F ITyADJ=14
 ICtDFT=  3500011 ScaDFX=  1.000000  1.000000  1.000000  1.000000
 FoFCou: FMM=F IPFlag=           0 FMFlag=      100000 FMFlg1=           0
         NFxFlg=           0 DoJE=T BraDBF=F KetDBF=T FulRan=T
         wScrn=  0.000000 ICntrl=     500 IOpCl=  0 I1Cent=   200000004 NGrid=           0
         NMat0=    1 NMatS0=      1 NMatT0=    0 NMatD0=    1 NMtDS0=    0 NMtDT0=    0
 Petite list used in FoFCou.
 Requested convergence on RMS density matrix=1.00D-08 within 128 cycles.
 Requested convergence on MAX density matrix=1.00D-06.
 Requested convergence on             energy=1.00D-06.
 No special actions if energy rises.
 SCF Done:  E(RM062X) =  -1161.25714762     A.U. after   17 cycles
            NFock= 17  Conv=0.46D-08     -V/T= 2.0069

 **********************************************************************

            Population analysis using the SCF density.

 **********************************************************************

 Orbital symmetries:
       Occupied  (A) (A) (A) (A) (A) (A) (A) (A) (A) (A) (A) (A)
                 (A) (A) (A) (A) (A) (A) (A) (A) (A) (A) (A) (A)
                 (A) (A) (A) (A) (A) (A) (A) (A) (A) (A) (A) (A)
                 (A) (A) (A) (A) (A) (A) (A) (A) (A) (A) (A) (A)
                 (A) (A) (A) (A) (A) (A) (A) (A) (A) (A) (A) (A)
                 (A) (A) (A) (A) (A) (A) (A) (A)
       Virtual   (A) (A) (A) (A) (A) (A) (A) (A) (A) (A) (A) (A)
                 (A) (A) (A) (A) (A) (A) (A) (A) (A) (A) (A) (A)
                 (A) (A) (A) (A) (A) (A) (A) (A) (A) (A) (A) (A)
                 (A) (A) (A) (A) (A) (A) (A) (A) (A) (A) (A) (A)
                 (A) (A) (A) (A) (A) (A) (A) (A) (A) (A) (A) (A)
                 (A) (A) (A) (A) (A) (A) (A) (A) (A) (A) (A) (A)
                 (A) (A) (A) (A) (A) (A) (A) (A) (A) (A) (A) (A)
                 (A) (A) (A) (A) (A) (A) (A) (A) (A) (A) (A) (A)
                 (A) (A) (A) (A) (A) (A) (A) (A) (A) (A) (A) (A)
                 (A) (A) (A) (A) (A) (A) (A) (A) (A) (A) (A) (A)
                 (A) (A) (A) (A) (A) (A) (A) (A) (A) (A) (A) (A)
                 (A) (A) (A) (A) (A) (A) (A) (A) (A) (A) (A) (A)
                 (A) (A) (A) (A) (A) (A) (A) (A) (A) (A) (A) (A)
                 (A) (A) (A) (A) (A) (A) (A) (A) (A) (A) (A) (A)
                 (A) (A) (A) (A) (A) (A) (A) (A) (A) (A) (A) (A)
                 (A) (A) (A) (A) (A) (A) (A) (A) (A) (A) (A) (A)
                 (A) (A) (A) (A) (A) (A) (A) (A) (A) (A) (A) (A)
                 (A) (A) (A) (A) (A) (A) (A) (A) (A) (A) (A) (A)
                 (A) (A) (A) (A) (A) (A) (A) (A) (A) (A) (A) (A)
                 (A) (A) (A) (A) (A) (A) (A) (A) (A) (A) (A) (A)
                 (A) (A) (A) (A) (A) (A) (A) (A) (A) (A) (A) (A)
                 (A) (A) (A) (A) (A) (A) (A) (A) (A) (A) (A) (A)
                 (A) (A) (A) (A) (A) (A) (A) (A) (A) (A) (A) (A)
                 (A) (A) (A) (A) (A) (A) (A) (A) (A) (A) (A) (A)
                 (A)
 The electronic state is 1-A.
 Alpha  occ. eigenvalues --  -90.02799 -19.52022 -19.52012 -19.44501 -14.63755
 Alpha  occ. eigenvalues --  -14.57474 -10.50936 -10.48775 -10.46574 -10.46194
 Alpha  occ. eigenvalues --  -10.45998 -10.45914 -10.44974 -10.44524 -10.44276
 Alpha  occ. eigenvalues --  -10.42095 -10.41648  -8.34149  -6.26321  -6.26268
 Alpha  occ. eigenvalues --   -6.26198  -1.10510  -0.99561  -0.99394  -0.88419
 Alpha  occ. eigenvalues --   -0.86325  -0.82298  -0.78836  -0.77471  -0.72390
 Alpha  occ. eigenvalues --   -0.71349  -0.67109  -0.61719  -0.58442  -0.57035
 Alpha  occ. eigenvalues --   -0.54587  -0.51202  -0.48910  -0.46573  -0.45276
 Alpha  occ. eigenvalues --   -0.44882  -0.44335  -0.42471  -0.41117  -0.40384
 Alpha  occ. eigenvalues --   -0.39150  -0.38955  -0.38251  -0.37703  -0.36858
 Alpha  occ. eigenvalues --   -0.35035  -0.34298  -0.33568  -0.32252  -0.31938
 Alpha  occ. eigenvalues --   -0.30623  -0.29698  -0.28453  -0.28168  -0.27497
 Alpha  occ. eigenvalues --   -0.25431  -0.24220  -0.23433  -0.19662  -0.18704
 Alpha  occ. eigenvalues --   -0.17569  -0.15425  -0.10551
 Alpha virt. eigenvalues --    0.09508   0.09677   0.11041   0.11755   0.12672
 Alpha virt. eigenvalues --    0.13009   0.13312   0.13544   0.13894   0.14308
 Alpha virt. eigenvalues --    0.14698   0.15378   0.15600   0.15920   0.16109
 Alpha virt. eigenvalues --    0.16410   0.16684   0.16905   0.17537   0.18177
 Alpha virt. eigenvalues --    0.18995   0.19125   0.19554   0.20863   0.21495
 Alpha virt. eigenvalues --    0.21743   0.22229   0.23064   0.23792   0.24305
 Alpha virt. eigenvalues --    0.24894   0.25214   0.25827   0.25873   0.26219
 Alpha virt. eigenvalues --    0.26654   0.27163   0.27549   0.28513   0.28855
 Alpha virt. eigenvalues --    0.29318   0.29466   0.29829   0.30086   0.31014
 Alpha virt. eigenvalues --    0.31486   0.31709   0.32335   0.32799   0.32983
 Alpha virt. eigenvalues --    0.33567   0.34404   0.34677   0.34875   0.35081
 Alpha virt. eigenvalues --    0.35606   0.36180   0.36518   0.36910   0.37677
 Alpha virt. eigenvalues --    0.37765   0.37944   0.38900   0.39293   0.39839
 Alpha virt. eigenvalues --    0.40108   0.40194   0.40824   0.41160   0.41439
 Alpha virt. eigenvalues --    0.42203   0.42739   0.42952   0.43565   0.43747
 Alpha virt. eigenvalues --    0.44010   0.44620   0.45105   0.45562   0.46033
 Alpha virt. eigenvalues --    0.46488   0.47728   0.48248   0.48851   0.49383
 Alpha virt. eigenvalues --    0.49940   0.50103   0.50487   0.50687   0.51795
 Alpha virt. eigenvalues --    0.52164   0.52957   0.54422   0.55502   0.56180
 Alpha virt. eigenvalues --    0.57855   0.58973   0.60774   0.61224   0.62705
 Alpha virt. eigenvalues --    0.65406   0.66903   0.69900   0.71382   0.72235
 Alpha virt. eigenvalues --    0.75706   0.77469   0.78044   0.78439   0.79227
 Alpha virt. eigenvalues --    0.81803   0.82408   0.82581   0.84890   0.86560
 Alpha virt. eigenvalues --    0.87907   0.89129   0.89219   0.89924   0.90678
 Alpha virt. eigenvalues --    0.91813   0.92211   0.93379   0.95005   0.95701
 Alpha virt. eigenvalues --    0.96266   0.97539   0.98536   1.00170   1.00862
 Alpha virt. eigenvalues --    1.01849   1.03307   1.04582   1.05781   1.06954
 Alpha virt. eigenvalues --    1.08869   1.09063   1.09630   1.11355   1.12069
 Alpha virt. eigenvalues --    1.13036   1.13464   1.14612   1.14827   1.15355
 Alpha virt. eigenvalues --    1.16517   1.18376   1.18798   1.19938   1.20651
 Alpha virt. eigenvalues --    1.22361   1.22645   1.23325   1.24329   1.25073
 Alpha virt. eigenvalues --    1.25655   1.27014   1.27646   1.28051   1.28512
 Alpha virt. eigenvalues --    1.29975   1.30892   1.32840   1.35980   1.36520
 Alpha virt. eigenvalues --    1.38670   1.41278   1.41850   1.43506   1.45618
 Alpha virt. eigenvalues --    1.45878   1.47882   1.48522   1.50074   1.51028
 Alpha virt. eigenvalues --    1.51373   1.52460   1.52893   1.53529   1.54645
 Alpha virt. eigenvalues --    1.55974   1.56252   1.57974   1.60253   1.61666
 Alpha virt. eigenvalues --    1.63236   1.64310   1.64684   1.66874   1.67810
 Alpha virt. eigenvalues --    1.68692   1.68897   1.70974   1.73463   1.75667
 Alpha virt. eigenvalues --    1.79909   1.80161   1.83064   1.88597   1.89296
 Alpha virt. eigenvalues --    1.92458   1.95020   1.95270   1.97333   1.99556
 Alpha virt. eigenvalues --    1.99935   2.00306   2.01357   2.02582   2.04194
 Alpha virt. eigenvalues --    2.05104   2.07166   2.08145   2.08244   2.11140
 Alpha virt. eigenvalues --    2.12178   2.12880   2.13862   2.14757   2.15942
 Alpha virt. eigenvalues --    2.17325   2.17676   2.19299   2.20081   2.21211
 Alpha virt. eigenvalues --    2.25278   2.26903   2.27091   2.27469   2.29746
 Alpha virt. eigenvalues --    2.31384   2.32346   2.34228   2.35007   2.36042
 Alpha virt. eigenvalues --    2.37201   2.39326   2.40423   2.41489   2.42524
 Alpha virt. eigenvalues --    2.43582   2.44604   2.47156   2.48091   2.49197
 Alpha virt. eigenvalues --    2.49679   2.54628   2.59555   2.62538   2.70218
 Alpha virt. eigenvalues --    2.72667   2.72812   2.74447   2.77581   2.81070
 Alpha virt. eigenvalues --    2.82956   2.84651   2.89103   2.90630   2.93411
 Alpha virt. eigenvalues --    2.95361   2.96842   2.98976   3.02152   3.05139
 Alpha virt. eigenvalues --    3.07979   3.10060   3.18928   3.25543   3.36405
 Alpha virt. eigenvalues --    3.49943   3.54305   4.15062   4.29875   4.36175
 Alpha virt. eigenvalues --    4.39244   4.41137   4.42126   4.45357   4.46653
 Alpha virt. eigenvalues --    4.50522   4.52354   4.52755   4.56313   4.60535
 Alpha virt. eigenvalues --    4.64407   4.68669   4.76973   4.91455
          Condensed to atoms (all electrons):
               1          2          3          4          5          6
     1  C    5.733963  -0.113701   0.026752   0.011046  -0.093388   0.002152
     2  C   -0.113701   6.475668  -0.714080  -0.051658   0.160788   0.020244
     3  C    0.026752  -0.714080   7.511906   0.315660  -0.393183  -0.067277
     4  N    0.011046  -0.051658   0.315660   8.030973  -0.053893  -0.229983
     5  C   -0.093388   0.160788  -0.393183  -0.053893   8.685361   0.524778
     6  O    0.002152   0.020244  -0.067277  -0.229983   0.524778   8.553015
     7  N    0.005997  -0.024310   0.005047  -0.547828   0.272210  -0.138303
     8  C   -0.027533   0.051305  -0.820983  -0.147047  -1.630335  -0.156884
     9  C    0.008134  -0.012201   0.300044   0.113800   3.525501   0.125430
    10  C   -0.010989   0.002215  -0.309352  -0.340011  -2.432956  -0.116826
    11  C    0.000241  -0.001232   0.017294   0.015783   0.602137   0.033194
    12  C   -0.000230  -0.000229  -0.027785   0.013263  -0.715978  -0.010909
    13  C   -0.001768   0.011529  -0.178401   0.274335  -2.919961   0.117484
    14  H    0.415296  -0.096504   0.033403   0.000722  -0.001535   0.000005
    15  H    0.415811  -0.054260  -0.013874   0.000067   0.000179  -0.000082
    16  H    0.420959  -0.059518  -0.012383   0.000215  -0.001187  -0.000020
    17  H   -0.034277   0.414506  -0.058715   0.002039  -0.006344   0.000018
    18  H   -0.044703   0.450994  -0.093854   0.004838  -0.003475  -0.000430
    19  H    0.019178  -0.134983   0.526852  -0.120800  -0.009008   0.007565
    20  H   -0.019754   0.004573   0.351432  -0.016678   0.003885  -0.005258
    21  H    0.004542   0.019897  -0.098131   0.255054   0.050574   0.009982
    22  H    0.000005  -0.000097  -0.001431   0.000343  -0.014094  -0.008286
    23  H   -0.000000   0.000015  -0.000716  -0.000634  -0.011990   0.000036
    24  H   -0.000000  -0.000000  -0.000002   0.000004  -0.000162  -0.000001
    25  S   -0.000033   0.000215  -0.006216   0.003165  -0.229189  -0.000495
    26  O    0.000000  -0.000000   0.000017   0.000008   0.002869  -0.000012
    27  O    0.000000   0.000000   0.000036   0.000016   0.002725  -0.000004
    28  H   -0.000000  -0.000001  -0.000102  -0.000031  -0.004424   0.000111
    29  C    0.000003  -0.000016   0.000816  -0.000157   0.040786  -0.000042
    30  H    0.000000  -0.000000   0.000001   0.000000   0.000339  -0.000000
    31  H   -0.000000   0.000000  -0.000000  -0.000000  -0.000065   0.000000
    32  H    0.000000  -0.000000   0.000002   0.000001   0.000304   0.000000
               7          8          9         10         11         12
     1  C    0.005997  -0.027533   0.008134  -0.010989   0.000241  -0.000230
     2  C   -0.024310   0.051305  -0.012201   0.002215  -0.001232  -0.000229
     3  C    0.005047  -0.820983   0.300044  -0.309352   0.017294  -0.027785
     4  N   -0.547828  -0.147047   0.113800  -0.340011   0.015783   0.013263
     5  C    0.272210  -1.630335   3.525501  -2.432956   0.602137  -0.715978
     6  O   -0.138303  -0.156884   0.125430  -0.116826   0.033194  -0.010909
     7  N    7.638902   0.696085  -0.102300  -0.009695   0.031969   0.016330
     8  C    0.696085  16.446948  -0.292441  -6.424208   3.057101  -5.944839
     9  C   -0.102300  -0.292441  43.129514  -7.132775   2.916077  -2.765433
    10  C   -0.009695  -6.424208  -7.132775  29.189586  -9.857925   2.891125
    11  C    0.031969   3.057101   2.916077  -9.857925  26.126688  -3.907932
    12  C    0.016330  -5.944839  -2.765433   2.891125  -3.907932  20.067485
    13  C   -0.355171   1.727513 -32.305377  -0.205814 -12.234852  -2.694681
    14  H    0.000011  -0.000040  -0.000009   0.000002   0.000000  -0.000000
    15  H   -0.000035   0.000064  -0.000057   0.000020   0.000000  -0.000000
    16  H    0.000060  -0.000026   0.000017  -0.000017  -0.000000  -0.000000
    17  H    0.001312  -0.001101   0.000495  -0.000418  -0.000002  -0.000005
    18  H   -0.002610  -0.001018  -0.000529   0.000615   0.000023   0.000006
    19  H    0.016564  -0.004852  -0.003641  -0.000795  -0.000054  -0.000195
    20  H   -0.011565   0.000966   0.005919  -0.000552  -0.000007   0.000175
    21  H    0.011995   0.004483   0.007220  -0.014673  -0.001576   0.000067
    22  H   -0.005375  -0.052652   0.218109   0.030047  -0.016612   0.057467
    23  H   -0.009770   0.086305   0.070883   0.291014  -0.102661   0.020139
    24  H    0.000310  -0.025471  -0.050715  -0.055398   0.174932   0.133425
    25  S   -0.000573  -0.673655  -3.328533   0.780589  -1.434391   0.232806
    26  O    0.000408  -0.025508   0.287125   0.018746  -0.396783   0.084373
    27  O    0.000184  -0.018299   0.097182   0.127567   0.142988   0.051411
    28  H   -0.000653  -0.016159  -0.011663  -0.022386   0.078984   0.124463
    29  C    0.000084   0.206898   0.841539  -0.052524   0.550066  -0.437836
    30  H    0.000044   0.001130   0.011106   0.003573  -0.008587  -0.019707
    31  H   -0.000003  -0.002153   0.000487   0.003764  -0.018663   0.053916
    32  H    0.000027  -0.001817  -0.002259   0.000593   0.031917  -0.020077
              13         14         15         16         17         18
     1  C   -0.001768   0.415296   0.415811   0.420959  -0.034277  -0.044703
     2  C    0.011529  -0.096504  -0.054260  -0.059518   0.414506   0.450994
     3  C   -0.178401   0.033403  -0.013874  -0.012383  -0.058715  -0.093854
     4  N    0.274335   0.000722   0.000067   0.000215   0.002039   0.004838
     5  C   -2.919961  -0.001535   0.000179  -0.001187  -0.006344  -0.003475
     6  O    0.117484   0.000005  -0.000082  -0.000020   0.000018  -0.000430
     7  N   -0.355171   0.000011  -0.000035   0.000060   0.001312  -0.002610
     8  C    1.727513  -0.000040   0.000064  -0.000026  -0.001101  -0.001018
     9  C  -32.305377  -0.000009  -0.000057   0.000017   0.000495  -0.000529
    10  C   -0.205814   0.000002   0.000020  -0.000017  -0.000418   0.000615
    11  C  -12.234852   0.000000   0.000000  -0.000000  -0.000002   0.000023
    12  C   -2.694681  -0.000000  -0.000000  -0.000000  -0.000005   0.000006
    13  C   53.483915  -0.000001  -0.000002   0.000001   0.000003   0.000013
    14  H   -0.000001   0.518899  -0.027781  -0.027969  -0.002886  -0.003016
    15  H   -0.000002  -0.027781   0.503537  -0.030853  -0.004768   0.004249
    16  H    0.000001  -0.027969  -0.030853   0.503381   0.003990  -0.004806
    17  H    0.000003  -0.002886  -0.004768   0.003990   0.510794  -0.037639
    18  H    0.000013  -0.003016   0.004249  -0.004806  -0.037639   0.536526
    19  H   -0.003039  -0.000055  -0.000497   0.002560   0.004603  -0.006749
    20  H    0.003486  -0.000089   0.002774  -0.000220  -0.006279   0.004484
    21  H   -0.003364  -0.000002  -0.000000   0.000003  -0.000201   0.002212
    22  H    0.091355  -0.000000  -0.000000   0.000000   0.000000  -0.000000
    23  H   -0.040803  -0.000000  -0.000000   0.000000   0.000000  -0.000000
    24  H    0.118054  -0.000000   0.000000   0.000000  -0.000000   0.000000
    25  S    2.686666  -0.000000   0.000000  -0.000000  -0.000000   0.000000
    26  O   -0.075002  -0.000000   0.000000  -0.000000  -0.000000   0.000000
    27  O   -0.563867  -0.000000   0.000000  -0.000000  -0.000000   0.000000
    28  H    0.161861  -0.000000  -0.000000   0.000000   0.000000  -0.000000
    29  C   -0.391692   0.000000  -0.000000  -0.000000   0.000000  -0.000000
    30  H   -0.011124  -0.000000   0.000000  -0.000000   0.000000  -0.000000
    31  H    0.001746   0.000000   0.000000   0.000000  -0.000000   0.000000
    32  H   -0.045686   0.000000   0.000000  -0.000000   0.000000   0.000000
              19         20         21         22         23         24
     1  C    0.019178  -0.019754   0.004542   0.000005  -0.000000  -0.000000
     2  C   -0.134983   0.004573   0.019897  -0.000097   0.000015  -0.000000
     3  C    0.526852   0.351432  -0.098131  -0.001431  -0.000716  -0.000002
     4  N   -0.120800  -0.016678   0.255054   0.000343  -0.000634   0.000004
     5  C   -0.009008   0.003885   0.050574  -0.014094  -0.011990  -0.000162
     6  O    0.007565  -0.005258   0.009982  -0.008286   0.000036  -0.000001
     7  N    0.016564  -0.011565   0.011995  -0.005375  -0.009770   0.000310
     8  C   -0.004852   0.000966   0.004483  -0.052652   0.086305  -0.025471
     9  C   -0.003641   0.005919   0.007220   0.218109   0.070883  -0.050715
    10  C   -0.000795  -0.000552  -0.014673   0.030047   0.291014  -0.055398
    11  C   -0.000054  -0.000007  -0.001576  -0.016612  -0.102661   0.174932
    12  C   -0.000195   0.000175   0.000067   0.057467   0.020139   0.133425
    13  C   -0.003039   0.003486  -0.003364   0.091355  -0.040803   0.118054
    14  H   -0.000055  -0.000089  -0.000002  -0.000000  -0.000000  -0.000000
    15  H   -0.000497   0.002774  -0.000000  -0.000000  -0.000000   0.000000
    16  H    0.002560  -0.000220   0.000003   0.000000   0.000000   0.000000
    17  H    0.004603  -0.006279  -0.000201   0.000000   0.000000  -0.000000
    18  H   -0.006749   0.004484   0.002212  -0.000000  -0.000000   0.000000
    19  H    0.554872  -0.043843   0.001362  -0.000001   0.000000   0.000000
    20  H   -0.043843   0.508920   0.003063   0.000002  -0.000000   0.000000
    21  H    0.001362   0.003063   0.366867   0.000004   0.000007  -0.000000
    22  H   -0.000001   0.000002   0.000004   0.475053  -0.000122   0.000013
    23  H    0.000000  -0.000000   0.000007  -0.000122   0.512925  -0.004295
    24  H    0.000000   0.000000  -0.000000   0.000013  -0.004295   0.489101
    25  S   -0.000011   0.000010   0.000004   0.005247  -0.000812   0.005814
    26  O   -0.000000   0.000000   0.000000   0.000025   0.000082   0.000272
    27  O   -0.000000   0.000000  -0.000000   0.000116   0.000022   0.000864
    28  H    0.000000  -0.000000   0.000000  -0.004070   0.000014  -0.000145
    29  C    0.000000  -0.000000  -0.000000  -0.000384   0.000192  -0.001880
    30  H    0.000000  -0.000000  -0.000000   0.000000   0.000001   0.000005
    31  H   -0.000000   0.000000   0.000000  -0.000000  -0.000000  -0.000003
    32  H    0.000000  -0.000000  -0.000000   0.000001  -0.000000   0.000014
              25         26         27         28         29         30
     1  C   -0.000033   0.000000   0.000000  -0.000000   0.000003   0.000000
     2  C    0.000215  -0.000000   0.000000  -0.000001  -0.000016  -0.000000
     3  C   -0.006216   0.000017   0.000036  -0.000102   0.000816   0.000001
     4  N    0.003165   0.000008   0.000016  -0.000031  -0.000157   0.000000
     5  C   -0.229189   0.002869   0.002725  -0.004424   0.040786   0.000339
     6  O   -0.000495  -0.000012  -0.000004   0.000111  -0.000042  -0.000000
     7  N   -0.000573   0.000408   0.000184  -0.000653   0.000084   0.000044
     8  C   -0.673655  -0.025508  -0.018299  -0.016159   0.206898   0.001130
     9  C   -3.328533   0.287125   0.097182  -0.011663   0.841539   0.011106
    10  C    0.780589   0.018746   0.127567  -0.022386  -0.052524   0.003573
    11  C   -1.434391  -0.396783   0.142988   0.078984   0.550066  -0.008587
    12  C    0.232806   0.084373   0.051411   0.124463  -0.437836  -0.019707
    13  C    2.686666  -0.075002  -0.563867   0.161861  -0.391692  -0.011124
    14  H   -0.000000  -0.000000  -0.000000  -0.000000   0.000000  -0.000000
    15  H    0.000000   0.000000   0.000000  -0.000000  -0.000000   0.000000
    16  H   -0.000000  -0.000000  -0.000000   0.000000  -0.000000  -0.000000
    17  H   -0.000000  -0.000000  -0.000000   0.000000   0.000000   0.000000
    18  H    0.000000   0.000000   0.000000  -0.000000  -0.000000  -0.000000
    19  H   -0.000011  -0.000000  -0.000000   0.000000   0.000000   0.000000
    20  H    0.000010   0.000000   0.000000  -0.000000  -0.000000  -0.000000
    21  H    0.000004   0.000000  -0.000000   0.000000  -0.000000  -0.000000
    22  H    0.005247   0.000025   0.000116  -0.004070  -0.000384   0.000000
    23  H   -0.000812   0.000082   0.000022   0.000014   0.000192   0.000001
    24  H    0.005814   0.000272   0.000864  -0.000145  -0.001880   0.000005
    25  S   18.646177   0.178784   0.268474  -0.015053  -2.443961  -0.017173
    26  O    0.178784   8.686310  -0.141576   0.000846  -0.099065  -0.003926
    27  O    0.268474  -0.141576   8.666211   0.001912  -0.106519   0.009539
    28  H   -0.015053   0.000846   0.001912   0.483291   0.002316   0.000010
    29  C   -2.443961  -0.099065  -0.106519   0.002316   7.510412   0.368684
    30  H   -0.017173  -0.003926   0.009539   0.000010   0.368684   0.450696
    31  H   -0.028031  -0.008172  -0.008284  -0.000004   0.346710  -0.022307
    32  H   -0.000052   0.009784  -0.004478   0.000001   0.366437  -0.021323
              31         32
     1  C   -0.000000   0.000000
     2  C    0.000000  -0.000000
     3  C   -0.000000   0.000002
     4  N   -0.000000   0.000001
     5  C   -0.000065   0.000304
     6  O    0.000000   0.000000
     7  N   -0.000003   0.000027
     8  C   -0.002153  -0.001817
     9  C    0.000487  -0.002259
    10  C    0.003764   0.000593
    11  C   -0.018663   0.031917
    12  C    0.053916  -0.020077
    13  C    0.001746  -0.045686
    14  H    0.000000   0.000000
    15  H    0.000000   0.000000
    16  H    0.000000  -0.000000
    17  H   -0.000000   0.000000
    18  H    0.000000   0.000000
    19  H   -0.000000   0.000000
    20  H    0.000000  -0.000000
    21  H    0.000000  -0.000000
    22  H   -0.000000   0.000001
    23  H   -0.000000  -0.000000
    24  H   -0.000003   0.000014
    25  S   -0.028031  -0.000052
    26  O   -0.008172   0.009784
    27  O   -0.008284  -0.004478
    28  H   -0.000004   0.000001
    29  C    0.346710   0.366437
    30  H   -0.022307  -0.021323
    31  H    0.447468  -0.022116
    32  H   -0.022116   0.448669
 Mulliken charges:
               1
     1  C   -0.717703
     2  C   -0.349161
     3  C   -0.292778
     4  N   -0.532610
     5  C    0.648732
     6  O   -0.659203
     7  N   -0.489349
     8  C   -0.011779
     9  C    0.349351
    10  C   -0.352143
    11  C    0.201880
    12  C   -1.200611
    13  C   -0.647357
    14  H    0.191549
    15  H    0.205508
    16  H    0.205814
    17  H    0.214876
    18  H    0.194868
    19  H    0.194967
    20  H    0.214559
    21  H    0.380612
    22  H    0.225338
    23  H    0.190164
    24  H    0.215266
    25  S    1.370232
    26  O   -0.519606
    27  O   -0.526218
    28  H    0.220882
    29  C   -0.700867
    30  H    0.259019
    31  H    0.255710
    32  H    0.260058
 Sum of Mulliken charges =  -1.00000
 Mulliken charges with hydrogens summed into heavy atoms:
               1
     1  C   -0.114832
     2  C    0.060583
     3  C    0.116749
     4  N   -0.151998
     5  C    0.648732
     6  O   -0.659203
     7  N   -0.489349
     8  C   -0.011779
     9  C    0.574689
    10  C   -0.161978
    11  C    0.417146
    12  C   -1.200611
    13  C   -0.426474
    25  S    1.370232
    26  O   -0.519606
    27  O   -0.526218
    29  C    0.073920
 Electronic spatial extent (au):  <R**2>=           8745.2921
 Charge=             -1.0000 electrons
 Dipole moment (field-independent basis, Debye):
    X=             -2.3176    Y=              2.5198    Z=              4.6626  Tot=              5.7845
 Quadrupole moment (field-independent basis, Debye-Ang):
   XX=           -165.3934   YY=           -122.0170   ZZ=           -117.7103
   XY=              1.1130   XZ=             17.8618   YZ=             -3.4815
 Traceless Quadrupole moment (field-independent basis, Debye-Ang):
   XX=            -30.3532   YY=             13.0233   ZZ=             17.3299
   XY=              1.1130   XZ=             17.8618   YZ=             -3.4815
 Octapole moment (field-independent basis, Debye-Ang**2):
  XXX=           -115.0738  YYY=              7.5289  ZZZ=              0.5125  XYY=             -9.2599
  XXY=             45.9721  XXZ=            100.0099  XZZ=             10.4765  YZZ=             -4.1967
  YYZ=              6.7196  XYZ=              9.1227
 Hexadecapole moment (field-independent basis, Debye-Ang**3):
 XXXX=         -12295.3485 YYYY=           -666.0027 ZZZZ=           -369.2843 XXXY=             20.8142
 XXXZ=            450.8854 YYYX=             29.7090 YYYZ=            -14.8686 ZZZX=             18.5320
 ZZZY=              0.4477 XXYY=          -2090.3040 XXZZ=          -1930.2199 YYZZ=           -178.6131
 XXYZ=              0.4468 YYXZ=              1.7739 ZZXY=            -17.5547
 N-N= 1.279106577222D+03 E-N=-5.298121599097D+03  KE= 1.153331996356D+03
 Calling FoFJK, ICntrl=      2127 FMM=F ISym2X=0 I1Cent= 0 IOpClX= 0 NMat=1 NMatS=1 NMatT=0.
 ***** Axes restored to original set *****
 -------------------------------------------------------------------
 Center     Atomic                   Forces (Hartrees/Bohr)
 Number     Number              X              Y              Z
 -------------------------------------------------------------------
      1        6          -0.001073664   -0.001258647   -0.000511406
      2        6           0.000474036    0.001279488    0.000080999
      3        6           0.007669322   -0.001329477   -0.002313318
      4        7          -0.015970270   -0.007222792   -0.004669797
      5        6           0.011846967    0.030268211    0.019603754
      6        8          -0.002821751   -0.016559805   -0.013312478
      7        7           0.010175509   -0.002794235   -0.001157453
      8        6          -0.017274327   -0.005987930   -0.001950051
      9        6           0.003834314    0.005328061   -0.000480722
     10        6           0.005337666   -0.001439279   -0.000249038
     11        6          -0.003699880   -0.001511269   -0.001379679
     12        6           0.007810677    0.001075326   -0.002777113
     13        6          -0.005610767   -0.001346611   -0.001788876
     14        1          -0.001131295   -0.000091045    0.000072360
     15        1           0.000232423    0.000003523    0.000262013
     16        1           0.000004126    0.000392182    0.000077265
     17        1           0.000445890   -0.000291770   -0.000380470
     18        1          -0.000680538   -0.000989787   -0.000171056
     19        1          -0.000311044    0.001000267    0.001392255
     20        1           0.001575705    0.000612474    0.000859387
     21        1           0.002630058    0.001233287    0.000633312
     22        1          -0.001988655   -0.001473593    0.002230473
     23        1          -0.001910950    0.000569570    0.000010831
     24        1           0.001237919    0.001058091    0.001124904
     25       16          -0.004653568    0.002450106    0.031303113
     26        8          -0.001329537    0.002548541   -0.011419098
     27        8           0.001242242   -0.005466965   -0.010045052
     28        1           0.001413582   -0.000105511    0.001075680
     29        6           0.002535525    0.000060794   -0.005889770
     30        1           0.000044646    0.000628238   -0.000165946
     31        1          -0.000354536   -0.000167515   -0.000020415
     32        1           0.000300176   -0.000471930   -0.000044607
 -------------------------------------------------------------------
 Cartesian Forces:  Max     0.031303113 RMS     0.006700952

 GradGradGradGradGradGradGradGradGradGradGradGradGradGradGradGradGradGrad
 Berny optimization.
 FormGI is forming the generalized inverse of G from B-inverse, IUseBI=4.
 GSVD:  received Info=                   1 from GESDD.
 Internal  Forces:  Max     0.021042415 RMS     0.003183877
 Search for a local minimum.
 Step number   1 out of a maximum of  168
 All quantities printed in internal units (Hartrees-Bohrs-Radians)
 Mixed Optimization -- RFO/linear search
 Second derivative matrix not updated -- first step.
 ITU=  0
     Eigenvalues ---    0.00427   0.00476   0.00659   0.00935   0.00975
     Eigenvalues ---    0.01655   0.01830   0.01904   0.01939   0.02012
     Eigenvalues ---    0.02064   0.02082   0.02095   0.02121   0.02144
     Eigenvalues ---    0.02148   0.02205   0.02220   0.02393   0.03720
     Eigenvalues ---    0.04436   0.04929   0.05546   0.05574   0.05584
     Eigenvalues ---    0.06204   0.06345   0.08178   0.08189   0.08751
     Eigenvalues ---    0.09169   0.12075   0.12578   0.12679   0.14125
     Eigenvalues ---    0.15997   0.15999   0.16000   0.16000   0.16000
     Eigenvalues ---    0.16000   0.16000   0.16000   0.16000   0.16000
     Eigenvalues ---    0.18597   0.21896   0.21912   0.21999   0.22553
     Eigenvalues ---    0.22942   0.23978   0.24922   0.24945   0.24995
     Eigenvalues ---    0.25000   0.25000   0.25000   0.27914   0.29829
     Eigenvalues ---    0.30075   0.30185   0.33616   0.33922   0.34027
     Eigenvalues ---    0.34148   0.34157   0.34271   0.34325   0.34444
     Eigenvalues ---    0.34579   0.34595   0.35187   0.35198   0.35229
     Eigenvalues ---    0.35631   0.37317   0.39841   0.40706   0.44331
     Eigenvalues ---    0.44636   0.45246   0.46691   0.48388   0.48403
     Eigenvalues ---    0.51456   0.55669   0.78254   0.84216   0.84531
 RFO step:  Lambda=-7.47019435D-03 EMin= 4.26670592D-03
 Linear search not attempted -- first point.
 Iteration  1 RMS(Cart)=  0.12226878 RMS(Int)=  0.00647302
 Iteration  2 RMS(Cart)=  0.01221926 RMS(Int)=  0.00032272
 Iteration  3 RMS(Cart)=  0.00009537 RMS(Int)=  0.00032064
 Iteration  4 RMS(Cart)=  0.00000005 RMS(Int)=  0.00032064
 Variable       Old X    -DE/DX   Delta X   Delta X   Delta X     New X
                                 (Linear)    (Quad)   (Total)
    R1        2.88306   0.00146   0.00000   0.00477   0.00477   2.88783
    R2        2.06786   0.00087   0.00000   0.00247   0.00247   2.07033
    R3        2.07081  -0.00007   0.00000  -0.00019  -0.00019   2.07062
    R4        2.07066  -0.00001   0.00000  -0.00004  -0.00004   2.07062
    R5        2.87595   0.00203   0.00000   0.00655   0.00655   2.88251
    R6        2.07285   0.00030   0.00000   0.00086   0.00086   2.07371
    R7        2.07462   0.00084   0.00000   0.00242   0.00242   2.07705
    R8        2.75370  -0.00671   0.00000  -0.01762  -0.01762   2.73609
    R9        2.07983   0.00118   0.00000   0.00344   0.00344   2.08327
   R10        2.06875   0.00027   0.00000   0.00077   0.00077   2.06953
   R11        2.61527   0.00938   0.00000   0.01910   0.01910   2.63437
   R12        1.91691  -0.00120   0.00000  -0.00261  -0.00261   1.91430
   R13        2.38871  -0.02104   0.00000  -0.02664  -0.02664   2.36207
   R14        2.54542   0.00189   0.00000   0.00335   0.00335   2.54877
   R15        2.58424  -0.01367   0.00000  -0.02618  -0.02618   2.55805
   R16        2.68898   0.00246   0.00000   0.00580   0.00581   2.69479
   R17        2.68654   0.00254   0.00000   0.00595   0.00593   2.69248
   R18        2.61848  -0.00100   0.00000  -0.00205  -0.00202   2.61645
   R19        2.04663   0.00015   0.00000   0.00040   0.00040   2.04703
   R20        2.61246  -0.00040   0.00000  -0.00080  -0.00083   2.61164
   R21        2.05304  -0.00014   0.00000  -0.00039  -0.00039   2.05265
   R22        2.64599   0.00115   0.00000   0.00244   0.00243   2.64842
   R23        2.05354   0.00032   0.00000   0.00088   0.00088   2.05442
   R24        2.64204   0.00282   0.00000   0.00601   0.00603   2.64807
   R25        3.31514  -0.00214   0.00000  -0.00693  -0.00693   3.30821
   R26        2.05372   0.00015   0.00000   0.00040   0.00040   2.05412
   R27        2.79419  -0.00838   0.00000  -0.00986  -0.00986   2.78433
   R28        2.79261  -0.00822   0.00000  -0.00964  -0.00964   2.78297
   R29        3.36026   0.00661   0.00000   0.02306   0.02306   3.38332
   R30        2.06364  -0.00054   0.00000  -0.00152  -0.00152   2.06212
   R31        2.06586  -0.00039   0.00000  -0.00110  -0.00110   2.06476
   R32        2.06337  -0.00044   0.00000  -0.00124  -0.00124   2.06213
    A1        1.94034   0.00119   0.00000   0.00880   0.00880   1.94914
    A2        1.93597  -0.00040   0.00000  -0.00341  -0.00342   1.93256
    A3        1.93665  -0.00002   0.00000  -0.00074  -0.00075   1.93590
    A4        1.88301  -0.00027   0.00000  -0.00040  -0.00040   1.88261
    A5        1.88311  -0.00036   0.00000  -0.00016  -0.00018   1.88293
    A6        1.88244  -0.00020   0.00000  -0.00437  -0.00438   1.87806
    A7        1.94570   0.00155   0.00000   0.00816   0.00816   1.95386
    A8        1.92013  -0.00007   0.00000   0.00089   0.00089   1.92102
    A9        1.91639  -0.00102   0.00000  -0.00618  -0.00621   1.91018
   A10        1.90636  -0.00079   0.00000  -0.00365  -0.00366   1.90270
   A11        1.90613   0.00020   0.00000   0.00437   0.00438   1.91051
   A12        1.86741   0.00006   0.00000  -0.00407  -0.00407   1.86334
   A13        1.93061  -0.00032   0.00000   0.00037   0.00034   1.93095
   A14        1.91316   0.00033   0.00000   0.00703   0.00698   1.92014
   A15        1.91359   0.00127   0.00000   0.00739   0.00738   1.92097
   A16        1.93388   0.00073   0.00000   0.00852   0.00848   1.94236
   A17        1.90340  -0.00122   0.00000  -0.01407  -0.01406   1.88934
   A18        1.86810  -0.00078   0.00000  -0.00960  -0.00960   1.85850
   A19        2.09503  -0.00405   0.00000  -0.01816  -0.01816   2.07687
   A20        2.01025   0.00395   0.00000   0.02126   0.02119   2.03144
   A21        1.98791  -0.00050   0.00000  -0.00911  -0.00906   1.97885
   A22        2.06112  -0.00069   0.00000  -0.00266  -0.00266   2.05845
   A23        1.99066  -0.00788   0.00000  -0.03060  -0.03060   1.96006
   A24        2.23106   0.00856   0.00000   0.03326   0.03326   2.26432
   A25        2.10502  -0.00362   0.00000  -0.01406  -0.01406   2.09096
   A26        2.19525   0.00008   0.00000   0.00053   0.00052   2.19578
   A27        2.04939   0.00056   0.00000   0.00236   0.00234   2.05173
   A28        2.03619  -0.00062   0.00000  -0.00221  -0.00223   2.03396
   A29        2.11915  -0.00035   0.00000  -0.00149  -0.00161   2.11754
   A30        2.08618  -0.00228   0.00000  -0.01370  -0.01387   2.07231
   A31        2.07769   0.00264   0.00000   0.01574   0.01556   2.09325
   A32        2.13282   0.00027   0.00000   0.00110   0.00106   2.13388
   A33        2.06209  -0.00217   0.00000  -0.01267  -0.01266   2.04943
   A34        2.08827   0.00190   0.00000   0.01159   0.01160   2.09987
   A35        2.08278   0.00081   0.00000   0.00333   0.00327   2.08605
   A36        2.09783   0.00128   0.00000   0.00835   0.00835   2.10617
   A37        2.10255  -0.00209   0.00000  -0.01177  -0.01178   2.09077
   A38        2.10105  -0.00145   0.00000  -0.00600  -0.00599   2.09506
   A39        2.08880   0.00027   0.00000   0.00107   0.00107   2.08986
   A40        2.09144   0.00117   0.00000   0.00456   0.00454   2.09598
   A41        2.09406   0.00135   0.00000   0.00572   0.00572   2.09977
   A42        2.09191   0.00087   0.00000   0.00638   0.00631   2.09822
   A43        2.09722  -0.00222   0.00000  -0.01213  -0.01219   2.08503
   A44        1.89969   0.00454   0.00000   0.03025   0.02856   1.92825
   A45        1.89967   0.00457   0.00000   0.03045   0.02876   1.92843
   A46        1.85531  -0.00405   0.00000  -0.03125  -0.03118   1.82413
   A47        2.04674   0.00497   0.00000   0.04718   0.04470   2.09144
   A48        1.87557  -0.00561   0.00000  -0.04327  -0.04311   1.83245
   A49        1.87769  -0.00562   0.00000  -0.04328  -0.04311   1.83458
   A50        1.89097   0.00043   0.00000   0.00244   0.00243   1.89341
   A51        1.86877  -0.00008   0.00000  -0.00036  -0.00036   1.86841
   A52        1.89052   0.00038   0.00000   0.00229   0.00228   1.89280
   A53        1.93606  -0.00016   0.00000  -0.00097  -0.00097   1.93509
   A54        1.93928  -0.00042   0.00000  -0.00274  -0.00275   1.93653
   A55        1.93570  -0.00010   0.00000  -0.00038  -0.00038   1.93532
    D1        3.13502  -0.00024   0.00000  -0.00213  -0.00213   3.13290
    D2        1.01741  -0.00023   0.00000  -0.00356  -0.00357   1.01384
    D3       -1.03337   0.00035   0.00000   0.00456   0.00455  -1.02883
    D4        1.03977  -0.00043   0.00000  -0.00520  -0.00519   1.03458
    D5       -1.07784  -0.00042   0.00000  -0.00663  -0.00663  -1.08447
    D6       -3.12863   0.00015   0.00000   0.00149   0.00148  -3.12714
    D7       -1.05233   0.00009   0.00000   0.00304   0.00305  -1.04928
    D8        3.11324   0.00010   0.00000   0.00161   0.00161   3.11485
    D9        1.06246   0.00067   0.00000   0.00973   0.00972   1.07218
   D10        3.12581   0.00053   0.00000   0.01545   0.01548   3.14128
   D11        0.98824  -0.00040   0.00000  -0.00023  -0.00023   0.98802
   D12       -1.05761  -0.00038   0.00000   0.00297   0.00297  -1.05464
   D13       -1.03177   0.00092   0.00000   0.01944   0.01945  -1.01232
   D14        3.11385  -0.00001   0.00000   0.00375   0.00375   3.11760
   D15        1.06799   0.00001   0.00000   0.00695   0.00695   1.07494
   D16        1.00505   0.00066   0.00000   0.01496   0.01496   1.02001
   D17       -1.13251  -0.00027   0.00000  -0.00073  -0.00074  -1.13325
   D18        3.10482  -0.00025   0.00000   0.00248   0.00246   3.10728
   D19       -3.05356   0.00016   0.00000  -0.01497  -0.01492  -3.06848
   D20       -0.57373  -0.00077   0.00000  -0.02681  -0.02687  -0.60060
   D21       -0.92815   0.00085   0.00000  -0.00003   0.00004  -0.92811
   D22        1.55169  -0.00008   0.00000  -0.01188  -0.01192   1.53977
   D23        1.12378  -0.00042   0.00000  -0.01531  -0.01527   1.10851
   D24       -2.67957  -0.00135   0.00000  -0.02716  -0.02722  -2.70679
   D25       -0.35976   0.00036   0.00000   0.00179   0.00187  -0.35789
   D26        2.75597   0.00044   0.00000   0.00219   0.00228   2.75825
   D27       -2.84747  -0.00031   0.00000   0.00269   0.00260  -2.84487
   D28        0.26826  -0.00024   0.00000   0.00309   0.00301   0.27127
   D29        2.87551   0.00261   0.00000   0.08148   0.08149   2.95699
   D30       -0.29497   0.00249   0.00000   0.08115   0.08114  -0.21384
   D31       -0.47682   0.00475   0.00000   0.16588   0.16588  -0.31094
   D32        2.74123   0.00445   0.00000   0.15487   0.15487   2.89610
   D33       -3.07451   0.00016   0.00000   0.00810   0.00815  -3.06636
   D34        0.04755   0.00113   0.00000   0.04175   0.04154   0.08909
   D35       -0.00886   0.00050   0.00000   0.01921   0.01924   0.01038
   D36        3.11319   0.00146   0.00000   0.05286   0.05263  -3.11736
   D37        3.08850  -0.00026   0.00000  -0.01140  -0.01148   3.07702
   D38       -0.05823  -0.00015   0.00000  -0.00662  -0.00670  -0.06493
   D39        0.01631  -0.00055   0.00000  -0.02149  -0.02156  -0.00525
   D40       -3.13043  -0.00044   0.00000  -0.01671  -0.01678   3.13598
   D41       -0.01203  -0.00008   0.00000  -0.00342  -0.00339  -0.01542
   D42        3.13167   0.00040   0.00000   0.01380   0.01395  -3.13756
   D43       -3.13418  -0.00099   0.00000  -0.03659  -0.03686   3.11215
   D44        0.00952  -0.00051   0.00000  -0.01937  -0.01951  -0.00999
   D45       -0.00264   0.00019   0.00000   0.00772   0.00773   0.00509
   D46        3.13072  -0.00019   0.00000  -0.00507  -0.00511   3.12562
   D47       -3.13902   0.00009   0.00000   0.00294   0.00289  -3.13613
   D48       -0.00565  -0.00029   0.00000  -0.00985  -0.00995  -0.01560
   D49       -0.01909   0.00028   0.00000   0.00934   0.00938  -0.00971
   D50       -3.09448   0.00040   0.00000   0.01555   0.01557  -3.07891
   D51        3.13075   0.00064   0.00000   0.02207   0.02201  -3.13042
   D52        0.05536   0.00076   0.00000   0.02828   0.02820   0.08356
   D53        0.02639  -0.00032   0.00000  -0.01142  -0.01149   0.01490
   D54       -3.11732  -0.00080   0.00000  -0.02867  -0.02868   3.13719
   D55        3.10168  -0.00048   0.00000  -0.01778  -0.01783   3.08385
   D56       -0.04202  -0.00096   0.00000  -0.03503  -0.03502  -0.07705
   D57       -0.51962   0.00647   0.00000   0.05784   0.05882  -0.46080
   D58       -2.76941  -0.00637   0.00000  -0.04566  -0.04666  -2.81607
   D59        1.49585   0.00005   0.00000   0.00605   0.00605   1.50189
   D60        2.68781   0.00669   0.00000   0.06442   0.06542   2.75322
   D61        0.43801  -0.00615   0.00000  -0.03908  -0.04006   0.39795
   D62       -1.57992   0.00027   0.00000   0.01264   0.01264  -1.56727
   D63       -1.05121   0.00002   0.00000   0.00040   0.00040  -1.05081
   D64       -3.14042   0.00002   0.00000   0.00043   0.00043  -3.13999
   D65        1.05423  -0.00002   0.00000  -0.00016  -0.00016   1.05407
   D66        0.98052   0.00054   0.00000  -0.00109  -0.00104   0.97948
   D67       -1.10870   0.00054   0.00000  -0.00106  -0.00100  -1.10970
   D68        3.08595   0.00050   0.00000  -0.00165  -0.00159   3.08436
   D69       -3.08393  -0.00051   0.00000   0.00179   0.00173  -3.08220
   D70        1.11003  -0.00051   0.00000   0.00182   0.00177   1.11180
   D71       -0.97850  -0.00055   0.00000   0.00123   0.00118  -0.97733
         Item               Value     Threshold  Converged?
 Maximum Force            0.021042     0.000450     NO 
 RMS     Force            0.003184     0.000300     NO 
 Maximum Displacement     0.469722     0.001800     NO 
 RMS     Displacement     0.129757     0.001200     NO 
 Predicted change in Energy=-4.191181D-03
 GradGradGradGradGradGradGradGradGradGradGradGradGradGradGradGradGradGrad

                          Input orientation:                          
 ---------------------------------------------------------------------
 Center     Atomic      Atomic             Coordinates (Angstroms)
 Number     Number       Type             X           Y           Z
 ---------------------------------------------------------------------
      1          6           0       -1.936415    1.752978    0.186820
      2          6           0       -0.591187    1.299249   -0.378696
      3          6           0        0.563134    2.146856    0.146490
      4          7           0        1.822093    1.692980   -0.406105
      5          6           0        3.004749    2.290778    0.026723
      6          8           0        2.930353    3.421011    0.555331
      7          7           0        4.080760    1.503643   -0.177595
      8          6           0        5.325512    2.010276   -0.015373
      9          6           0        5.665764    3.394843    0.011829
     10          6           0        6.408082    1.087108    0.061094
     11          6           0        7.724154    1.499279    0.150805
     12          6           0        8.018686    2.869262    0.174399
     13          6           0        6.983746    3.810709    0.095533
     14          1           0       -2.763121    1.146980   -0.199958
     15          1           0       -2.134562    2.798286   -0.075263
     16          1           0       -1.946719    1.677697    1.279910
     17          1           0       -0.605570    1.354377   -1.474576
     18          1           0       -0.420712    0.245545   -0.116539
     19          1           0        0.577916    2.122938    1.248552
     20          1           0        0.420683    3.194301   -0.139712
     21          1           0        1.910486    0.696624   -0.566225
     22          1           0        4.868765    4.127719   -0.021289
     23          1           0        6.164837    0.028573    0.046945
     24          1           0        8.529327    0.772355    0.222737
     25         16           0        9.687261    3.398624    0.192728
     26          8           0       10.548980    2.366460    0.795214
     27          8           0        9.780621    4.793166    0.656761
     28          1           0        7.222479    4.870909    0.118801
     29          6           0       10.161299    3.448158   -1.533039
     30          1           0       10.052548    2.445863   -1.950599
     31          1           0       11.203486    3.774227   -1.569805
     32          1           0        9.513047    4.158336   -2.048990
 ---------------------------------------------------------------------
                    Distance matrix (angstroms):
                    1          2          3          4          5
     1  C    0.000000
     2  C    1.528175   0.000000
     3  C    2.530714   1.525358   0.000000
     4  N    3.805462   2.445341   1.447875   0.000000
     5  C    4.972923   3.752099   2.448783   1.394051   0.000000
     6  O    5.157865   4.216103   2.719255   2.266868   1.249955
     7  N    6.033354   4.680737   3.590605   2.278079   1.348751
     8  C    7.269296   5.970334   4.767084   3.539392   2.338032
     9  C    7.779426   6.610102   5.254753   4.224312   2.881004
    10  C    8.371967   7.016280   5.940857   4.649372   3.610081
    11  C    9.663967   8.334583   7.190242   5.931441   4.786925
[...]
 00001257,-0.00604716,0.00043887,-0.00005650,0.00496745,0.00098324,0.00
 002613,-0.00302332,0.00023117,0.00057359,-0.00245423,-0.00055167,0.000
 37151,-0.00472987,0.00377690,-0.00149658,0.00219333,-0.01457460,-0.007
 16173,0.00429809,-0.00496374,-0.00028290,-0.00007788,-0.00000732,-0.00
 001739,0.00000818,0.00003391,0.00000349,-0.00000050,0.00000340,0.00002
 794,0.00002295,0.00000305,0.00000042,-0.00000247,-0.00001075,-0.000007
 19,-0.00021844,0.00002117,0.00018108,0.00004789,0.00005267,-0.00000786
 ,0.00010749,0.00010594,0.00009666,-0.00041344,-0.00015924,0.00009979,-
 0.00070745,-0.00018934,0.00026557,0.00059359,0.00078742,-0.00029749,-0
 .03376213,-0.47645372,-0.15918329,-0.00571456,-0.01421460,-0.01387234,
 0.04667526,0.50982971,0.00000322,0.00000184,-0.00000153,-0.00000315,-0
 .00000242,-0.00000993,0.00001965,-0.00000466,-0.00004016,0.00001723,0.
 00002870,0.00006706,-0.00010634,0.00009037,-0.00002401,-0.00004525,-0.
 00001848,0.00009796,0.00019645,0.00005479,0.00011692,-0.00020608,0.000
 26265,-0.00014634,-0.00028316,0.00037447,0.00012358,0.00104098,-0.0005
 6515,-0.00035054,-0.00254564,-0.00044197,0.00186581,0.00393971,-0.0020
 0881,0.00988515,0.00047250,-0.00040195,0.00061491,0.00000268,0.0000019
 7,0.00000090,-0.00000119,0.00000160,-0.00000396,-0.00000382,-0.0000032
 5,0.00000868,0.00000223,-0.00000210,0.00001284,0.00000099,0.00000371,-
 0.00000131,-0.00000860,-0.00000714,0.00002450,-0.00000069,-0.00000043,
 -0.00000864,0.00000227,-0.00000959,-0.00003867,-0.00003591,-0.00002253
 ,-0.00015977,-0.00013781,-0.00002218,-0.00038150,-0.00011314,0.0001086
 5,0.00003686,-0.01458956,-0.16480972,-0.15240485,-0.00392106,0.0124919
 4,0.01846900,0.02032592,0.18886650,0.13697092,-0.00000239,-0.00000553,
 -0.00000419,-0.00001005,0.00000349,0.00000976,0.00001008,-0.00001522,-
 0.00002929,-0.00008434,0.00012864,0.00005203,0.00041431,-0.00038656,-0
 .00000378,-0.00003813,0.00044072,-0.00000854,0.00002927,-0.00166435,-0
 .00003892,-0.00554274,-0.00020455,-0.00024838,-0.00167017,-0.02949979,
 -0.00049073,-0.00079519,-0.00011661,0.00010681,-0.00413924,0.00290034,
 -0.00023692,0.00952917,0.02139372,0.00033125,-0.07218439,-0.06139382,-
 0.00140560,-0.00000250,0.00000120,0.00000089,-0.00000141,0.00000339,-0
 .00000050,-0.00000029,-0.00000035,0.00000014,0.00000042,-0.00000131,-0
 .00000072,0.00000191,0.00000393,-0.00000070,-0.00000567,-0.00000296,0.
 00000695,-0.00000910,0.00000666,-0.00000103,0.00006019,0.00002716,-0.0
 0001740,0.00098162,0.00044069,0.00018252,0.00009255,-0.00006214,0.0000
 0267,0.00050158,0.00135299,-0.00004202,-0.00040141,0.00419294,0.001010
 03,0.00035667,-0.00087229,-0.00006310,0.00006117,-0.00157413,-0.000166
 57,0.07300962,-0.00000473,-0.00000798,-0.00000688,-0.00000941,0.000008
 20,0.00001607,0.00007265,-0.00004071,-0.00002049,-0.00023938,-0.000010
 61,-0.00003970,0.00059796,-0.00037999,0.00001120,-0.00013769,0.0002968
 6,-0.00001452,-0.00056232,-0.00047156,0.00003399,-0.00065580,0.0017605
 6,-0.00031899,-0.00053689,-0.00403126,-0.00026284,-0.00010750,0.000851
 08,0.00002683,0.00432138,-0.00075531,-0.00017333,-0.00520820,-0.016918
 51,-0.00040161,-0.05959057,-0.32809742,-0.00587810,-0.00000993,-0.0000
 0068,-0.00000176,0.00000077,0.00000399,0.00000072,0.00000028,0.0000004
 6,0.00000281,0.00000268,0.00000061,-0.00000115,0.00000015,-0.00000126,
 -0.00000103,-0.00002547,0.00000115,0.00002236,0.00000382,0.00000862,0.
 00000018,0.00002943,0.00002195,0.00000779,-0.00008259,0.00091370,0.000
 23988,-0.00007046,-0.00006400,0.00003014,-0.00036599,-0.00089407,-0.00
 002146,-0.00165471,-0.00390292,-0.00028455,0.00041254,0.00069364,-0.00
 014822,-0.00185749,0.00170492,0.00016800,0.06515748,0.34912955,-0.0000
 0090,-0.00000064,-0.00000040,0.00000405,0.00000202,0.00000293,0.000007
 38,-0.00000104,0.00005487,-0.00003579,0.00001540,-0.00003430,0.0000659
 6,-0.00004396,0.00025689,-0.00000392,0.00001158,0.00001897,-0.00003606
 ,0.00000034,-0.00127322,-0.00007554,0.00051359,0.00916515,-0.00064382,
 -0.00038760,0.00518183,0.00038919,-0.00002998,-0.00104911,-0.00035086,
 -0.00042598,0.00502095,-0.00043851,0.00107776,0.00274366,-0.00054312,-
 0.00788409,-0.03851836,-0.00000138,-0.00000084,-0.00000084,0.00000009,
 0.00000059,0.00000165,0.00000126,0.00000136,-0.00000194,-0.00000040,-0
 .00000130,-0.00000429,0.00000027,0.00000020,-0.00000079,-0.00000547,0.
 00000302,-0.00000242,-0.00000063,-0.00000378,0.00000333,0.00001216,-0.
 00002230,-0.00004044,0.00008164,0.00006457,-0.00530258,0.00003285,-0.0
 0001502,-0.00072617,-0.00004032,0.00000249,0.00080899,0.00041715,0.000
 41394,-0.00190994,-0.00043275,0.00003194,0.00004199,-0.00021846,-0.000
 70236,-0.00080717,0.00125511,0.00721661,0.02676597,-0.00003211,-0.0000
 5226,-0.00004231,-0.00004215,0.00007410,0.00009289,0.00054173,-0.00028
 567,-0.00001406,-0.00173502,-0.00034516,-0.00057637,0.00412279,-0.0027
 1624,0.00029374,-0.00068893,0.00172001,-0.00003886,-0.00598646,-0.0001
 0048,0.00008654,0.00453260,0.00157962,0.00032475,-0.00256572,-0.002653
 22,-0.00135006,-0.00366603,0.00062033,-0.00125660,0.00123914,0.0050431
 5,0.00228754,-0.01023559,-0.00612429,0.01948991,0.00469357,-0.00295733
 ,0.00185449,-0.00007144,-0.00000764,-0.00001685,0.00000961,0.00002114,
 0.00000661,0.00000177,0.00000627,0.00002074,0.00002096,0.00000690,-0.0
 0000627,-0.00000402,-0.00002418,-0.00000341,-0.00019839,0.00002401,0.0
 0015666,0.00004606,0.00004157,0.00000035,0.00007299,0.00011870,0.00010
 937,-0.00015087,-0.00002841,-0.00025790,-0.00019772,-0.00013243,-0.000
 32292,-0.00006642,-0.00048951,0.00044703,-0.06602095,-0.00164055,0.025
 09403,0.00328216,0.01253141,-0.02417927,0.00930604,-0.00365739,-0.0060
 8119,-0.00026074,0.00038559,0.00057623,0.58330410,-0.00001033,-0.00001
 702,-0.00001311,-0.00001343,0.00002392,0.00002861,0.00017334,-0.000092
 55,-0.00000757,-0.00055112,-0.00012219,-0.00018844,0.00128542,-0.00078
 129,0.00010117,-0.00024024,0.00048914,0.00001207,-0.00185301,-0.000073
 95,0.00002551,0.00138535,0.00062394,0.00007128,-0.00089144,-0.00044208
 ,-0.00026924,-0.00127084,0.00057263,-0.00052878,0.00183392,0.00132912,
 0.00014257,-0.00569269,0.00601260,0.00615495,0.00032311,-0.00191424,0.
 00119211,-0.00002284,-0.00000235,-0.00000525,0.00000331,0.00000668,0.0
 0000160,0.00000047,0.00000159,0.00000684,0.00000663,0.00000305,-0.0000
 0140,-0.00000178,-0.00000806,-0.00000066,-0.00006344,0.00000622,0.0000
 5032,0.00001638,0.00001243,-0.00000185,0.00002069,0.00003690,0.0000380
 1,-0.00009475,-0.00007006,-0.00019541,0.00002838,-0.00004144,0.0000051
 3,0.00009257,-0.00006791,0.00035668,-0.00128045,-0.06340908,0.01010882
 ,0.00475492,-0.00326439,0.02499392,0.00313925,-0.00756317,-0.03432999,
 -0.00018968,0.00010992,-0.00002911,-0.00794165,0.60279406,0.00000307,0
 .00000454,0.00000312,0.00000272,-0.00000243,-0.00001091,-0.00004159,0.
 00002006,-0.00000273,0.00013416,0.00004087,0.00004929,-0.00021488,-0.0
 0005221,-0.00001473,0.00012464,0.00000366,0.00003354,0.00015822,0.0000
 0211,0.00002756,-0.00011354,-0.00004410,-0.00009114,0.00000654,-0.0002
 0135,-0.00005596,-0.00019765,0.00017709,0.00002659,0.00060708,0.000095
 25,-0.00100860,-0.00019208,0.00009580,0.00421077,0.00051502,0.00022583
 ,-0.00087158,0.00000888,0.00000216,0.00000223,-0.00000129,-0.00000223,
 -0.00000198,-0.00000157,-0.00000142,0.00000072,-0.00000052,-0.00000158
 ,0.00000550,0.00000141,0.00000251,0.00000030,0.00001122,-0.00000204,-0
 .00000316,-0.00000639,-0.00000526,-0.00000146,-0.00001169,-0.00000573,
 -0.00001790,-0.00001934,0.00001249,0.00001366,0.00002403,0.00001350,0.
 00002282,-0.00019895,-0.00020377,0.00013363,0.01366189,0.00657207,-0.1
 5823818,0.00170664,0.00237965,-0.00728821,0.00261672,-0.00092739,-0.00
 884307,-0.00026148,0.00005355,0.00012458,0.04419812,0.01883859,0.40046
 837,0.00000156,0.00000335,0.00000293,0.00000238,-0.00000432,-0.0000038
 5,-0.00003916,0.00002039,0.00000501,0.00010800,0.00001742,0.00001801,-
 0.00022430,0.00011210,-0.00000417,0.00006026,-0.00008523,-0.00000845,0
 .00027313,-0.00003176,-0.00001825,-0.00025203,0.00002821,0.00004059,0.
 00003070,-0.00000988,0.00007161,0.00000730,-0.00017825,-0.00007705,-0.
 00023777,-0.00010421,-0.00003553,0.00008868,-0.00018327,-0.00029662,-0
 .00011497,0.00015779,-0.00010458,0.00000553,0.00000076,0.00000170,-0.0
 0000060,-0.00000170,-0.00000023,0.00000030,-0.00000036,-0.00000268,-0.
 00000192,-0.00000017,-0.00000113,0.00000040,0.00000169,0.00000036,0.00
 001388,-0.00000118,-0.00001233,-0.00000407,-0.00000341,0.00000081,-0.0
 0000676,-0.00000602,-0.00000198,0.00000209,-0.00000356,0.00000143,-0.0
 0000728,-0.00000485,-0.00000025,0.00009360,-0.00006406,0.00007604,-0.0
 0084066,0.00546399,0.00193516,-0.00067225,0.00013238,-0.00049063,0.001
 32491,0.00090643,0.00253135,0.00007526,-0.00004813,-0.00004674,-0.0537
 3489,-0.03584050,-0.01764147,0.05201372,0.00000040,0.,0.00000050,0.000
 00053,0.00000056,-0.00000227,-0.00000092,0.00000051,-0.00000227,0.0000
 0952,0.00000068,0.00001045,-0.00002662,0.00002286,-0.00001036,0.000009
 44,-0.00001478,0.00001108,0.00005573,-0.00002177,0.00001332,-0.0000641
 0,0.00016043,-0.00001212,-0.00007998,-0.00005324,-0.00001184,0.0001679
 5,-0.00006986,0.00001290,-0.00023649,0.00027873,0.00001276,0.00014575,
 0.00013778,0.00020624,0.00025665,-0.00018407,0.00002539,0.00000052,0.0
 0000018,-0.00000002,0.00000002,0.00000001,-0.00000032,-0.00000033,-0.0
 0000014,0.00000067,0.00000018,-0.00000041,0.00000117,-0.00000008,0.000
 00013,0.,0.00000058,-0.00000016,0.00000116,-0.00000024,-0.00000046,-0.
 00000065,-0.00000143,-0.00000040,-0.00000250,-0.00000106,-0.00000770,-
 0.00000610,-0.00000918,-0.00000475,-0.00001082,0.00008356,-0.00006564,
 -0.00000253,0.00051241,0.00038343,0.00240607,-0.00025436,0.00070309,0.
 00037420,0.00000654,0.00230655,0.00102990,-0.00003460,0.00003607,0.000
 02244,-0.03573635,-0.27989602,-0.10874259,0.03911857,0.29746580,-0.000
 00285,-0.00000475,-0.00000407,-0.00000413,0.00000574,0.00000898,0.0000
 4952,-0.00002628,-0.00000391,-0.00015382,-0.00003098,-0.00004723,0.000
 33560,-0.00018624,0.00001159,-0.00007081,0.00012381,0.00000323,-0.0004
 5460,-0.00001201,0.00001412,0.00027674,0.00033831,-0.00001677,-0.00038
 380,-0.00022124,-0.00009754,0.00001731,0.00033144,-0.00001019,0.000707
 14,0.00005291,0.00010719,-0.00105469,0.00181909,0.00085421,0.00038234,
 -0.00021095,0.00033606,-0.00000661,-0.00000073,-0.00000144,0.00000076,
 0.00000213,0.00000048,0.00000015,0.00000037,0.00000188,0.00000182,0.00
 000095,-0.00000048,-0.00000030,-0.00000182,-0.00000037,-0.00001777,0.0
 0000167,0.00001392,0.00000479,0.00000402,-0.00000031,0.00000776,0.0000
 0881,0.00000963,0.00000108,-0.00000500,-0.00003804,0.00003958,-0.00000
 532,0.00001674,-0.00002749,0.00018178,-0.00022833,-0.00469059,-0.02838
 438,-0.00855056,0.00053258,0.00325166,0.00238421,0.00142562,-0.0031584
 7,-0.00910451,-0.00010519,0.00005557,-0.00002140,-0.01800891,-0.108365
 61,-0.09529051,0.01790661,0.11670386,0.10060539,-0.00000452,-0.0000076
 6,-0.00000628,-0.00000609,0.00000997,0.00001241,0.00008171,-0.00004256
 ,-0.00000329,-0.00025341,-0.00005016,-0.00007282,0.00058174,-0.0003254
 8,0.00003433,-0.00012404,0.00021564,-0.00000288,-0.00079266,-0.0000009
 3,-0.00000512,0.00065023,0.00009208,0.00001286,-0.00021569,-0.00023411
 ,-0.00007676,-0.00055334,0.00007153,-0.00010459,0.00051577,0.00078190,
 0.00027061,-0.00057992,-0.00044331,0.00153258,0.00075369,-0.00037465,0
 .00026393,-0.00001152,-0.00000149,-0.00000292,0.00000166,0.00000347,0.
 00000102,0.00000024,0.00000092,0.00000353,0.00000326,0.00000106,-0.000
 00076,-0.00000083,-0.00000357,-0.00000062,-0.00002957,0.00000325,0.000
 02291,0.00000749,0.00000658,-0.00000082,0.00001243,0.00001611,0.000014
 89,-0.00001083,-0.00000634,-0.00003199,-0.00002027,-0.00001302,-0.0000
 4770,-0.00000094,-0.00005277,0.00002234,-0.00673900,-0.00204542,-0.001
 44561,0.00134231,-0.00002934,-0.00014330,0.00125567,0.00133330,-0.0000
 9196,-0.00002282,0.00002237,-0.00004660,-0.30354073,-0.08006990,0.0248
 8571,-0.00124495,0.00061623,0.00011667,0.32381699,-0.00000182,-0.00000
 259,-0.00000250,-0.00000236,0.00000467,0.00000503,0.00003137,-0.000016
 34,-0.00000026,-0.00010102,-0.00002487,-0.00003308,0.00021923,-0.00011
 213,0.00000586,-0.00003548,0.00006295,0.00000061,-0.00027953,-0.000057
 62,0.00001683,0.00011272,0.00049827,-0.00000850,-0.00048409,-0.0003436
 2,-0.00006842,0.00019979,0.00006982,-0.00003143,-0.00001344,0.00015310
 ,0.00009427,-0.00053721,0.00065364,0.00067041,0.00057863,-0.00012645,0
 .00008226,-0.00000440,-0.00000054,-0.00000119,0.00000065,0.00000086,0.
 00000050,0.00000015,0.00000045,0.00000135,0.00000118,0.00000046,-0.000
 00034,-0.00000024,-0.00000195,-0.00000013,-0.00001121,0.00000165,0.000
 00870,0.00000265,0.00000218,0.00000005,0.00000368,0.00000729,0.0000070
 4,-0.00000200,-0.00001117,-0.00004023,-0.00000561,-0.00001376,0.000011
 16,-0.00001036,0.00000576,-0.00008894,-0.00284278,-0.00102491,-0.00033
 838,0.00127871,-0.00057183,-0.00010981,0.00017749,-0.00052357,-0.00013
 102,-0.00002165,0.00004203,0.00011528,-0.08015426,-0.07359026,0.007698
 59,-0.02636383,-0.00577821,0.00528181,0.08758449,0.07250206,0.00001156
 ,0.00001822,0.00001515,0.00001532,-0.00002659,-0.00003340,-0.00018953,
 0.00010185,0.00000180,0.00061288,0.00011853,0.00021672,-0.00148841,0.0
 0100898,-0.00010893,0.00023703,-0.00062987,0.00001833,0.00218356,0.000
 04384,-0.00003266,-0.00164140,-0.00058785,-0.00014407,0.00104557,0.000
 98632,0.00044877,0.00146202,-0.00026704,0.00045745,-0.00076172,-0.0016
 9213,-0.00052405,0.00330559,0.00116024,-0.00514771,-0.00167987,0.00098
 946,-0.00046068,0.00002485,0.00000251,0.00000568,-0.00000334,-0.000007
 28,-0.00000233,-0.00000077,-0.00000214,-0.00000698,-0.00000696,-0.0000
 0250,0.00000271,0.00000114,0.00000843,0.00000110,0.00006982,-0.0000085
 8,-0.00005433,-0.00001543,-0.00001444,-0.00000031,-0.00002529,-0.00004
 400,-0.00004181,0.00006736,0.00001654,0.00009249,0.00006269,0.00004748
 ,0.00009687,-0.00000748,0.00013379,-0.00023952,0.03094715,0.00969343,-
 0.00314943,-0.00314747,-0.00156800,0.00181740,-0.00347039,-0.00061871,
 0.00181689,0.00006403,-0.00012188,-0.00024639,0.02697839,0.00834970,-0
 .04702847,-0.01438462,-0.00257829,0.00207351,-0.02816169,-0.00883949,0
 .04842658,0.00000177,0.00000328,0.00000268,0.00000197,-0.00000407,-0.0
 0000381,-0.00003424,0.00001609,0.00000585,0.00010024,0.00002746,0.0000
 2515,-0.00018920,0.00004499,-0.00001122,0.00005566,-0.00003019,-0.0000
 0970,0.00020042,0.00004914,-0.00001231,-0.00012191,-0.00024658,0.00001
 923,-0.00000733,0.00022363,-0.00002786,-0.00002565,0.00001478,0.000064
 07,0.00002812,0.00000605,-0.00007137,0.00011449,0.00016888,-0.00015156
 ,-0.00026671,-0.00029659,-0.00000419,0.00000511,0.00000078,0.00000144,
 -0.00000097,-0.00000145,-0.00000036,0.00000008,-0.00000035,-0.00000190
 ,-0.00000131,-0.00000065,-0.00000029,0.00000076,0.00000178,0.00000020,
 0.00001181,-0.00000103,-0.00000991,-0.00000428,-0.00000266,0.00000071,
 -0.00000421,-0.00000587,-0.00000500,-0.00002713,0.00000068,-0.00000541
 ,0.00000174,0.00001305,-0.00000456,0.00002598,0.00003789,-0.00002525,0
 .00214257,-0.00398626,0.00266271,0.00208558,-0.00114527,0.00248013,-0.
 00027103,-0.00082955,-0.00021406,0.00004675,0.00016016,0.00007792,-0.1
 6197536,0.12296433,-0.06976363,0.00327990,-0.00453883,0.00317548,-0.01
 487205,0.02068055,-0.01210460,0.16969843,0.00000080,0.00000230,0.00000
 151,0.00000120,-0.00000310,-0.00000027,-0.00002375,0.00001207,0.000005
 44,0.00006081,0.00001296,0.00000346,-0.00012374,0.00004600,-0.00000342
 ,0.00003782,-0.00003948,-0.00001317,0.00013619,-0.00000875,-0.00001080
 ,-0.00016206,0.00004678,0.00004064,-0.00015768,-0.00004313,-0.00006123
 ,0.00012784,0.00002467,0.00002446,-0.00011938,-0.00035744,-0.00003740,
 -0.00018409,0.00021485,-0.00038876,-0.00009935,0.00026461,-0.00004290,
 0.00000312,0.00000033,0.00000109,-0.00000048,-0.00000112,0.00000011,0.
 00000042,-0.00000011,-0.00000215,-0.00000142,0.00000012,-0.00000162,0.
 00000039,0.00000097,0.00000018,0.00000836,-0.00000045,-0.00000852,-0.0
 0000266,-0.00000158,0.00000134,-0.00000296,-0.00000327,0.00000046,-0.0
 0000262,0.00000421,0.00001114,0.00000579,0.00000126,0.00000292,0.00003
 078,0.00008660,-0.00004537,0.00166946,-0.00370506,-0.00054798,-0.00012
 698,0.00137152,0.00103451,-0.00053150,0.00040867,-0.00070373,-0.000007
 82,-0.00000702,0.00005486,0.12287422,-0.18066616,0.07395379,0.01697165
 ,-0.01539921,0.01244984,-0.00705822,0.00819461,-0.00567052,-0.13332416
 ,0.18954338,-0.00000293,-0.00000400,-0.00000441,-0.00000361,0.00000550
 ,0.00000871,0.00004491,-0.00002225,-0.00000325,-0.00014529,-0.00003301
 ,-0.00004526,0.00031740,-0.00015419,0.00003148,-0.00007579,0.00010449,
 -0.00000949,-0.00042722,-0.00001459,-0.00000267,0.00037876,-0.00008547
 ,-0.00001711,0.00019715,-0.00025156,-0.00000513,-0.00040874,-0.0000602
 0,-0.00007694,0.00017718,0.00036699,0.00033464,0.00012505,-0.00215743,
 0.00074323,0.00060301,0.00042079,0.00009718,-0.00000655,-0.00000090,-0
 .00000157,0.00000102,0.00000150,0.00000084,0.00000028,0.00000065,0.000
 00166,0.00000146,0.00000086,-0.00000096,-0.00000064,-0.00000269,-0.000
 00048,-0.00001628,0.00000193,0.00001236,0.00000521,0.00000394,0.000000
 48,0.00000719,0.00000850,0.00000874,0.00003770,0.00002540,0.00002239,-
 0.00000787,-0.00000729,-0.00003888,-0.00005802,-0.00010544,-0.00003708
 ,-0.02001140,0.02098979,-0.00758889,-0.00077164,0.00390076,-0.00883678
 ,0.00229690,-0.00239810,0.00221397,0.00010287,-0.00018918,-0.00025202,
 -0.06986242,0.07345857,-0.08635406,0.01053895,-0.00944945,0.00697453,0
 .00305191,-0.00430601,0.00172963,0.07391143,-0.08004790,0.09109514\\-0
 .00000109,-0.00000060,-0.00000142,0.00000155,-0.00000135,0.00000145,-0
 .00000213,0.00000075,0.00000498,-0.00000477,-0.00000510,-0.00000295,0.
 00002252,-0.00000453,0.00000945,-0.00000510,0.00000300,-0.00000294,-0.
 00001632,0.00000705,-0.00000411,0.00000716,0.00000062,-0.00001315,-0.0
 0000126,-0.00000344,0.00000347,-0.00000742,-0.00000157,0.00000516,0.00
 000592,0.00000562,-0.00000417,-0.00001298,-0.00000092,-0.00000217,0.00
 000249,0.00000567,0.00000679,0.00000007,-0.00000122,0.00000040,0.00000
 002,-0.00000078,0.00000061,0.00000057,-0.00000039,0.00000060,-0.000000
 72,0.00000052,-0.00000076,0.00000079,-0.00000048,-0.00000156,0.0000017
 4,-0.00000121,-0.00000067,0.00000220,-0.00000068,-0.00000106,0.0000001
 4,-0.00000129,0.00000122,-0.00000064,-0.00000136,0.00000106,0.00000029
 ,0.00000033,-0.00000118,0.00000056,-0.00000078,0.00000021,0.00001345,0
 .00000212,0.00001098,-0.00000272,0.00000419,-0.00000315,-0.00000430,-0
 .00000233,-0.00000431,0.00000150,-0.00000169,-0.00000084,-0.00000102,-
 0.00000254,-0.00000073,-0.00000009,0.00000132,-0.00000143,-0.00000039,
 0.00000016,0.00000007,-0.00000003,0.00000091,0.00000015\\\@


 THERE IS NOTHING NOBLE IN BEING SUPERIOR TO SOME OTHER MAN.
 TRUE NOBILITY IS BEING SUPERIOR TO YOUR FORMER SELF.

                                                   -- HINDU PROVERB
 Job cpu time:       0 days  3 hours 18 minutes 22.0 seconds.
 File lengths (MBytes):  RWF=    458 Int=      0 D2E=      0 Chk=     12 Scr=      1
 Normal termination of Gaussian 09 at Wed Oct 31 14:17:20 2018.
WARNING: pbs_rusage is deprecated and values produced may not be accurate


=============================================================================
                                     Resource usage:
                                       CPU time:              08:39:50
   JobId:    1874224.r-man2            Elapsed time:          02:11:02
   Project:             q95            Requested time:        34:00:00
   Service Units:      8.74 
                                       Max physical memory:      674MB
                                       Max virtual memory:      1179MB
                                       Requested memory:           0MB

                                       Number of cpus:               4

                                       Max jobfs disk use:       0.4GB
                                       Requested jobfs:         16.0GB
=============================================================================

