 Entering Gaussian System, Link 0=/apps/gaussian/g09e01/g09/g09
 AtFile(1): /home/507/hio507/Basis/6-31pGd.gbs
 Initial command:
 /apps/gaussian/g09e01/g09/l1.exe "/jobfs/local/5892188.r-man2/Gau-38715.inp" -scrdir="/jobfs/local/5892188.r-man2/"
 Entering Link 1 = /apps/gaussian/g09e01/g09/l1.exe PID=     38716.
  
 Copyright (c) 1988,1990,1992,1993,1995,1998,2003,2009,2015,
            Gaussian, Inc.  All Rights Reserved.
  
 This is part of the Gaussian(R) 09 program.  It is based on
 the Gaussian(R) 03 system (copyright 2003, Gaussian, Inc.),
 the Gaussian(R) 98 system (copyright 1998, Gaussian, Inc.),
 the Gaussian(R) 94 system (copyright 1995, Gaussian, Inc.),
 the Gaussian 92(TM) system (copyright 1992, Gaussian, Inc.),
 the Gaussian 90(TM) system (copyright 1990, Gaussian, Inc.),
 the Gaussian 88(TM) system (copyright 1988, Gaussian, Inc.),
 the Gaussian 86(TM) system (copyright 1986, Carnegie Mellon
 University), and the Gaussian 82(TM) system (copyright 1983,
 Carnegie Mellon University). Gaussian is a federally registered
 trademark of Gaussian, Inc.
  
 This software contains proprietary and confidential information,
 including trade secrets, belonging to Gaussian, Inc.
  
 This software is provided under written license and may be
 used, copied, transmitted, or stored only in accord with that
 written license.
  
 The following legend is applicable only to US Government
 contracts under FAR:
  
                    RESTRICTED RIGHTS LEGEND
  
 Use, reproduction and disclosure by the US Government is
 subject to restrictions as set forth in subparagraphs (a)
 and (c) of the Commercial Computer Software - Restricted
 Rights clause in FAR 52.227-19.
  
 Gaussian, Inc.
 340 Quinnipiac St., Bldg. 40, Wallingford CT 06492
  
  
 ---------------------------------------------------------------
 Warning -- This program may not be used in any manner that
 competes with the business of Gaussian, Inc. or will provide
 assistance to any competitor of Gaussian, Inc.  The licensee
 of this program is prohibited from giving any competitor of
 Gaussian, Inc. access to this program.  By using this program,
 the user acknowledges that Gaussian, Inc. is engaged in the
 business of creating and licensing software in the field of
 computational chemistry and represents and warrants to the
 licensee that it is not a competitor of Gaussian, Inc. and that
 it will not use this program in any manner prohibited above.
 ---------------------------------------------------------------
  

 Cite this work as:
 Gaussian 09, Revision E.01,
 M. J. Frisch, G. W. Trucks, H. B. Schlegel, G. E. Scuseria, 
 M. A. Robb, J. R. Cheeseman, G. Scalmani, V. Barone, B. Mennucci, 
 G. A. Petersson, H. Nakatsuji, M. Caricato, X. Li, H. P. Hratchian, 
 A. F. Izmaylov, J. Bloino, G. Zheng, J. L. Sonnenberg, M. Hada, 
 M. Ehara, K. Toyota, R. Fukuda, J. Hasegawa, M. Ishida, T. Nakajima, 
 Y. Honda, O. Kitao, H. Nakai, T. Vreven, J. A. Montgomery, Jr., 
 J. E. Peralta, F. Ogliaro, M. Bearpark, J. J. Heyd, E. Brothers, 
 K. N. Kudin, V. N. Staroverov, T. Keith, R. Kobayashi, J. Normand, 
 K. Raghavachari, A. Rendell, J. C. Burant, S. S. Iyengar, J. Tomasi, 
 M. Cossi, N. Rega, J. M. Millam, M. Klene, J. E. Knox, J. B. Cross, 
 V. Bakken, C. Adamo, J. Jaramillo, R. Gomperts, R. E. Stratmann, 
 O. Yazyev, A. J. Austin, R. Cammi, C. Pomelli, J. W. Ochterski, 
 R. L. Martin, K. Morokuma, V. G. Zakrzewski, G. A. Voth, 
 P. Salvador, J. J. Dannenberg, S. Dapprich, A. D. Daniels, 
 O. Farkas, J. B. Foresman, J. V. Ortiz, J. Cioslowski, 
 and D. J. Fox, Gaussian, Inc., Wallingford CT, 2013.
 
 ******************************************
 Gaussian 09:  ES64L-G09RevE.01 30-Nov-2015
                19-Feb-2019 
 ******************************************
 %chk=22Cl_4CF3_EtO.M062X_6-31pGd_opt_Pentadecane.chk
 %mem=196608000
 %nproc=8
 Will use up to    8 processors via shared memory.
 ----------------------------------------------------------------------
 # M062X/Gen 6D SCF=Tight INT(grid=ultrafine) OPT IOP(2/17=4) SCRF=(SMD
 ,Solvent=n-Pentadecane) maxdisk=3221225472
 ----------------------------------------------------------------------
 1/14=-1,18=20,19=15,26=4,38=1/1,3;
 2/9=110,12=2,17=4,18=5,40=1/2;
 3/5=7,8=2,11=2,16=1,25=1,30=1,70=32201,71=1,72=151,74=-55,75=-5/1,2,3;
 4//1;
 5/5=2,32=2,38=5,53=151/2;
 6/7=2,8=2,9=2,10=2,28=1/1;
 7//1,2,3,16;
 1/14=-1,18=20,19=15,26=4/3(2);
 2/9=110,17=4/2;
 99//99;
 2/9=110,17=4/2;
 3/5=7,6=1,8=2,11=2,16=1,25=1,30=1,70=32205,71=1,72=151,74=-55,75=-5,82=7/1,2,3;
 4/5=5,16=3,69=1/1;
 5/5=2,32=2,38=5,53=151/2;
 7//1,2,3,16;
 1/14=-1,18=20,19=15,26=4/3(-5);
 2/9=110,17=4/2;
 6/7=2,8=2,9=2,10=2,19=2,28=1/1;
 99/9=1/99;
 -------------------------------------------
 22Cl_4CF3_EtO.M062X_6-31pGd_opt_Pentadecane
 -------------------------------------------
 Symbolic Z-matrix:
 Charge = -1 Multiplicity = 1
 C                    -4.348     3.9583   -0.8744 
 C                    -4.41101   2.59289  -0.61881 
 C                    -3.23284   1.88152  -0.43824 
 C                    -1.96016   2.48611  -0.51426 
 C                    -1.94834   3.8653   -0.82218 
 C                    -3.11618   4.59807  -0.97693 
 N                    -0.80632   1.75299  -0.34546 
 C                     0.15379   2.12435   0.60579 
 N                     1.25568   1.34711   0.57496 
 O                    -0.02451   3.05065   1.39551 
 C                     2.32028   1.54998   1.53043 
 C                     3.23169   0.32759   1.56662 
 C                     4.40018   0.52563   2.52949 
 H                    -0.7494    0.78173  -0.73799 
 H                     1.38013   0.6224   -0.15812 
 H                     1.88322   1.7373    2.51941 
 H                     2.90765   2.44641   1.27421 
 H                     3.59727   0.11875   0.55444 
 H                     2.6383   -0.54711   1.85865 
 H                     5.01612   1.38183   2.22946 
 H                     5.0475   -0.35712   2.55977 
 H                     4.04388   0.71616   3.54912 
 H                    -5.36369   2.08015  -0.54482 
 H                    -3.05643   5.6551   -1.21316 
 C                    -5.60563   4.758    -0.99917 
 F                    -5.48704   5.76526  -1.88815 
 F                    -6.65546   4.00993  -1.39101 
 F                    -5.97098   5.33511   0.16792 
 Cl                   -0.44522   4.67392  -1.13147 
 Cl                   -3.3387    0.18664  -0.08346 
 O                     1.72273  -0.70719  -1.26896 
 O                    -0.51622  -0.74855  -1.46542 
 C                     0.64032  -1.19866  -1.68062 
 C                     0.75595  -2.48012  -2.52416 
 C                    -0.57581  -3.02935  -3.02065 
 H                     1.2841   -3.22109  -1.91083 
 H                     1.42775  -2.25421  -3.36157 
 H                    -1.23716  -3.25476  -2.17913 
 H                    -0.43413  -3.9429   -3.61171 
 H                    -1.09188  -2.28907  -3.63882 
 
 Add virtual bond connecting atoms O31        and H15        Dist= 3.34D+00.
 Add virtual bond connecting atoms O32        and H14        Dist= 3.23D+00.

 GradGradGradGradGradGradGradGradGradGradGradGradGradGradGradGradGradGrad
 Berny optimization.
 Initialization pass.
                           ----------------------------
                           !    Initial Parameters    !
                           ! (Angstroms and Degrees)  !
 --------------------------                            --------------------------
 ! Name  Definition              Value          Derivative Info.                !
 --------------------------------------------------------------------------------
 ! R1    R(1,2)                  1.3906         estimate D2E/DX2                !
 ! R2    R(1,6)                  1.3918         estimate D2E/DX2                !
 ! R3    R(1,25)                 1.4956         estimate D2E/DX2                !
 ! R4    R(2,3)                  1.3881         estimate D2E/DX2                !
 ! R5    R(2,23)                 1.0844         estimate D2E/DX2                !
 ! R6    R(3,4)                  1.411          estimate D2E/DX2                !
 ! R7    R(3,30)                 1.7349         estimate D2E/DX2                !
 ! R8    R(4,5)                  1.4132         estimate D2E/DX2                !
 ! R9    R(4,7)                  1.3774         estimate D2E/DX2                !
 ! R10   R(5,6)                  1.3874         estimate D2E/DX2                !
 ! R11   R(5,29)                 1.7346         estimate D2E/DX2                !
 ! R12   R(6,24)                 1.0848         estimate D2E/DX2                !
 ! R13   R(7,8)                  1.4016         estimate D2E/DX2                !
 ! R14   R(7,14)                 1.0491         estimate D2E/DX2                !
 ! R15   R(8,9)                  1.3488         estimate D2E/DX2                !
 ! R16   R(8,10)                 1.2302         estimate D2E/DX2                !
 ! R17   R(9,11)                 1.4448         estimate D2E/DX2                !
 ! R18   R(9,15)                 1.0383         estimate D2E/DX2                !
 ! R19   R(11,12)                1.5252         estimate D2E/DX2                !
 ! R20   R(11,16)                1.0974         estimate D2E/DX2                !
 ! R21   R(11,17)                1.1019         estimate D2E/DX2                !
 ! R22   R(12,13)                1.527          estimate D2E/DX2                !
 ! R23   R(12,18)                1.0962         estimate D2E/DX2                !
 ! R24   R(12,19)                1.0966         estimate D2E/DX2                !
 ! R25   R(13,20)                1.0966         estimate D2E/DX2                !
 ! R26   R(13,21)                1.0951         estimate D2E/DX2                !
 ! R27   R(13,22)                1.0968         estimate D2E/DX2                !
 ! R28   R(14,32)                1.7103         estimate D2E/DX2                !
 ! R29   R(15,31)                1.7661         estimate D2E/DX2                !
 ! R30   R(25,26)                1.3487         estimate D2E/DX2                !
 ! R31   R(25,27)                1.3473         estimate D2E/DX2                !
 ! R32   R(25,28)                1.3523         estimate D2E/DX2                !
 ! R33   R(31,33)                1.258          estimate D2E/DX2                !
 ! R34   R(32,33)                1.2596         estimate D2E/DX2                !
 ! R35   R(33,34)                1.5385         estimate D2E/DX2                !
 ! R36   R(34,35)                1.5237         estimate D2E/DX2                !
 ! R37   R(34,36)                1.0973         estimate D2E/DX2                !
 ! R38   R(34,37)                1.0971         estimate D2E/DX2                !
 ! R39   R(35,38)                1.0938         estimate D2E/DX2                !
 ! R40   R(35,39)                1.0973         estimate D2E/DX2                !
 ! R41   R(35,40)                1.0938         estimate D2E/DX2                !
 ! A1    A(2,1,6)              120.331          estimate D2E/DX2                !
 ! A2    A(2,1,25)             120.1506         estimate D2E/DX2                !
 ! A3    A(6,1,25)             119.4916         estimate D2E/DX2                !
 ! A4    A(1,2,3)              119.2531         estimate D2E/DX2                !
 ! A5    A(1,2,23)             121.1055         estimate D2E/DX2                !
 ! A6    A(3,2,23)             119.6357         estimate D2E/DX2                !
 ! A7    A(2,3,4)              122.6136         estimate D2E/DX2                !
 ! A8    A(2,3,30)             118.3912         estimate D2E/DX2                !
 ! A9    A(4,3,30)             118.9896         estimate D2E/DX2                !
 ! A10   A(3,4,5)              115.9402         estimate D2E/DX2                !
 ! A11   A(3,4,7)              121.3923         estimate D2E/DX2                !
 ! A12   A(5,4,7)              122.6247         estimate D2E/DX2                !
 ! A13   A(4,5,6)              122.1908         estimate D2E/DX2                !
 ! A14   A(4,5,29)             120.069          estimate D2E/DX2                !
 ! A15   A(6,5,29)             117.6018         estimate D2E/DX2                !
 ! A16   A(1,6,5)              119.6036         estimate D2E/DX2                !
 ! A17   A(1,6,24)             120.8444         estimate D2E/DX2                !
 ! A18   A(5,6,24)             119.512          estimate D2E/DX2                !
 ! A19   A(4,7,8)              121.0612         estimate D2E/DX2                !
 ! A20   A(4,7,14)             119.4937         estimate D2E/DX2                !
 ! A21   A(8,7,14)             117.5194         estimate D2E/DX2                !
 ! A22   A(7,8,9)              113.0424         estimate D2E/DX2                !
 ! A23   A(7,8,10)             122.4026         estimate D2E/DX2                !
 ! A24   A(9,8,10)             124.539          estimate D2E/DX2                !
 ! A25   A(8,9,11)             120.394          estimate D2E/DX2                !
 ! A26   A(8,9,15)             121.0819         estimate D2E/DX2                !
 ! A27   A(11,9,15)            118.463          estimate D2E/DX2                !
 ! A28   A(9,11,12)            110.0888         estimate D2E/DX2                !
 ! A29   A(9,11,16)            109.0561         estimate D2E/DX2                !
 ! A30   A(9,11,17)            110.6848         estimate D2E/DX2                !
 ! A31   A(12,11,16)           110.6972         estimate D2E/DX2                !
 ! A32   A(12,11,17)           109.8155         estimate D2E/DX2                !
 ! A33   A(16,11,17)           106.4387         estimate D2E/DX2                !
 ! A34   A(11,12,13)           111.6103         estimate D2E/DX2                !
 ! A35   A(11,12,18)           109.2721         estimate D2E/DX2                !
 ! A36   A(11,12,19)           108.7995         estimate D2E/DX2                !
 ! A37   A(13,12,18)           110.5934         estimate D2E/DX2                !
 ! A38   A(13,12,19)           110.4628         estimate D2E/DX2                !
 ! A39   A(18,12,19)           105.9251         estimate D2E/DX2                !
 ! A40   A(12,13,20)           111.011          estimate D2E/DX2                !
 ! A41   A(12,13,21)           111.4215         estimate D2E/DX2                !
 ! A42   A(12,13,22)           111.1103         estimate D2E/DX2                !
 ! A43   A(20,13,21)           107.7544         estimate D2E/DX2                !
 ! A44   A(20,13,22)           107.5298         estimate D2E/DX2                !
 ! A45   A(21,13,22)           107.8406         estimate D2E/DX2                !
 ! A46   A(1,25,26)            112.3586         estimate D2E/DX2                !
 ! A47   A(1,25,27)            112.4952         estimate D2E/DX2                !
 ! A48   A(1,25,28)            112.5443         estimate D2E/DX2                !
 ! A49   A(26,25,27)           106.9465         estimate D2E/DX2                !
 ! A50   A(26,25,28)           105.8968         estimate D2E/DX2                !
 ! A51   A(27,25,28)           106.1073         estimate D2E/DX2                !
 ! A52   A(15,31,33)           109.4521         estimate D2E/DX2                !
 ! A53   A(14,32,33)           121.1703         estimate D2E/DX2                !
 ! A54   A(31,33,32)           126.4782         estimate D2E/DX2                !
 ! A55   A(31,33,34)           116.1128         estimate D2E/DX2                !
 ! A56   A(32,33,34)           117.4084         estimate D2E/DX2                !
 ! A57   A(33,34,35)           114.4052         estimate D2E/DX2                !
 ! A58   A(33,34,36)           106.9866         estimate D2E/DX2                !
 ! A59   A(33,34,37)           107.0382         estimate D2E/DX2                !
 ! A60   A(35,34,36)           111.0627         estimate D2E/DX2                !
 ! A61   A(35,34,37)           111.1438         estimate D2E/DX2                !
 ! A62   A(36,34,37)           105.721          estimate D2E/DX2                !
 ! A63   A(34,35,38)           110.6136         estimate D2E/DX2                !
 ! A64   A(34,35,39)           111.2705         estimate D2E/DX2                !
 ! A65   A(34,35,40)           110.6444         estimate D2E/DX2                !
 ! A66   A(38,35,39)           108.7189         estimate D2E/DX2                !
 ! A67   A(38,35,40)           106.7979         estimate D2E/DX2                !
 ! A68   A(39,35,40)           108.6598         estimate D2E/DX2                !
 ! A69   L(7,14,32,9,-1)       177.1498         estimate D2E/DX2                !
 ! A70   L(9,15,31,2,-1)       185.6737         estimate D2E/DX2                !
 ! A71   L(7,14,32,9,-2)       185.4103         estimate D2E/DX2                !
 ! A72   L(9,15,31,2,-2)       184.1452         estimate D2E/DX2                !
 ! D1    D(6,1,2,3)              1.3971         estimate D2E/DX2                !
 ! D2    D(6,1,2,23)          -179.4741         estimate D2E/DX2                !
 ! D3    D(25,1,2,3)          -176.7091         estimate D2E/DX2                !
 ! D4    D(25,1,2,23)            2.4197         estimate D2E/DX2                !
 ! D5    D(2,1,6,5)             -0.017          estimate D2E/DX2                !
 ! D6    D(2,1,6,24)           177.6707         estimate D2E/DX2                !
 ! D7    D(25,1,6,5)           178.1016         estimate D2E/DX2                !
 ! D8    D(25,1,6,24)           -4.2107         estimate D2E/DX2                !
 ! D9    D(2,1,25,26)         -146.573          estimate D2E/DX2                !
 ! D10   D(2,1,25,27)          -25.8116         estimate D2E/DX2                !
 ! D11   D(2,1,25,28)           93.9927         estimate D2E/DX2                !
 ! D12   D(6,1,25,26)           35.3049         estimate D2E/DX2                !
 ! D13   D(6,1,25,27)          156.0663         estimate D2E/DX2                !
 ! D14   D(6,1,25,28)          -84.1294         estimate D2E/DX2                !
 ! D15   D(1,2,3,4)             -0.5475         estimate D2E/DX2                !
 ! D16   D(1,2,3,30)           178.577          estimate D2E/DX2                !
 ! D17   D(23,2,3,4)          -179.6893         estimate D2E/DX2                !
 ! D18   D(23,2,3,30)           -0.5648         estimate D2E/DX2                !
 ! D19   D(2,3,4,5)             -1.5933         estimate D2E/DX2                !
 ! D20   D(2,3,4,7)           -179.2722         estimate D2E/DX2                !
 ! D21   D(30,3,4,5)           179.2872         estimate D2E/DX2                !
 ! D22   D(30,3,4,7)             1.6083         estimate D2E/DX2                !
 ! D23   D(3,4,5,6)              3.0206         estimate D2E/DX2                !
 ! D24   D(3,4,5,29)          -172.5985         estimate D2E/DX2                !
 ! D25   D(7,4,5,6)           -179.3319         estimate D2E/DX2                !
 ! D26   D(7,4,5,29)             5.0489         estimate D2E/DX2                !
 ! D27   D(3,4,7,8)           -125.6355         estimate D2E/DX2                !
 ! D28   D(3,4,7,14)            38.1826         estimate D2E/DX2                !
 ! D29   D(5,4,7,8)             56.8429         estimate D2E/DX2                !
 ! D30   D(5,4,7,14)          -139.339          estimate D2E/DX2                !
 ! D31   D(4,5,6,1)             -2.2898         estimate D2E/DX2                !
 ! D32   D(4,5,6,24)           179.9914         estimate D2E/DX2                !
 ! D33   D(29,5,6,1)           173.4322         estimate D2E/DX2                !
 ! D34   D(29,5,6,24)           -4.2866         estimate D2E/DX2                !
 ! D35   D(4,7,8,9)           -175.9412         estimate D2E/DX2                !
 ! D36   D(4,7,8,10)             5.4517         estimate D2E/DX2                !
 ! D37   D(14,7,8,9)            19.9327         estimate D2E/DX2                !
 ! D38   D(14,7,8,10)         -158.6744         estimate D2E/DX2                !
 ! D39   D(4,7,32,33)          156.6445         estimate D2E/DX2                !
 ! D40   D(8,7,32,33)          -35.4385         estimate D2E/DX2                !
 ! D41   D(7,8,9,11)          -177.0808         estimate D2E/DX2                !
 ! D42   D(7,8,9,15)             5.8079         estimate D2E/DX2                !
 ! D43   D(10,8,9,11)            1.4916         estimate D2E/DX2                !
 ! D44   D(10,8,9,15)         -175.6198         estimate D2E/DX2                !
 ! D45   D(8,9,11,12)          163.2484         estimate D2E/DX2                !
 ! D46   D(8,9,11,16)           41.6156         estimate D2E/DX2                !
 ! D47   D(8,9,11,17)          -75.1567         estimate D2E/DX2                !
 ! D48   D(15,9,11,12)         -19.5656         estimate D2E/DX2                !
 ! D49   D(15,9,11,16)        -141.1984         estimate D2E/DX2                !
 ! D50   D(15,9,11,17)         102.0292         estimate D2E/DX2                !
 ! D51   D(8,9,31,33)          -27.7737         estimate D2E/DX2                !
 ! D52   D(11,9,31,33)         152.9547         estimate D2E/DX2                !
 ! D53   D(9,11,12,13)         177.9118         estimate D2E/DX2                !
 ! D54   D(9,11,12,18)          55.2763         estimate D2E/DX2                !
 ! D55   D(9,11,12,19)         -59.9425         estimate D2E/DX2                !
 ! D56   D(16,11,12,13)        -61.4373         estimate D2E/DX2                !
 ! D57   D(16,11,12,18)        175.9271         estimate D2E/DX2                !
 ! D58   D(16,11,12,19)         60.7083         estimate D2E/DX2                !
 ! D59   D(17,11,12,13)         55.8009         estimate D2E/DX2                !
 ! D60   D(17,11,12,18)        -66.8347         estimate D2E/DX2                !
 ! D61   D(17,11,12,19)        177.9465         estimate D2E/DX2                !
 ! D62   D(11,12,13,20)        -60.4016         estimate D2E/DX2                !
 ! D63   D(11,12,13,21)        179.4936         estimate D2E/DX2                !
 ! D64   D(11,12,13,22)         59.2121         estimate D2E/DX2                !
 ! D65   D(18,12,13,20)         61.4746         estimate D2E/DX2                !
 ! D66   D(18,12,13,21)        -58.6301         estimate D2E/DX2                !
 ! D67   D(18,12,13,22)       -178.9116         estimate D2E/DX2                !
 ! D68   D(19,12,13,20)        178.4147         estimate D2E/DX2                !
 ! D69   D(19,12,13,21)         58.3099         estimate D2E/DX2                !
 ! D70   D(19,12,13,22)        -61.9715         estimate D2E/DX2                !
 ! D71   D(15,31,33,32)          6.9607         estimate D2E/DX2                !
 ! D72   D(15,31,33,34)       -172.7477         estimate D2E/DX2                !
 ! D73   D(14,32,33,31)          9.2152         estimate D2E/DX2                !
 ! D74   D(14,32,33,34)       -171.0798         estimate D2E/DX2                !
 ! D75   D(31,33,34,35)       -179.077          estimate D2E/DX2                !
 ! D76   D(31,33,34,36)         57.4696         estimate D2E/DX2                !
 ! D77   D(31,33,34,37)        -55.4809         estimate D2E/DX2                !
 ! D78   D(32,33,34,35)          1.1871         estimate D2E/DX2                !
 ! D79   D(32,33,34,36)       -122.2663         estimate D2E/DX2                !
 ! D80   D(32,33,34,37)        124.7833         estimate D2E/DX2                !
 ! D81   D(33,34,35,38)        -58.8352         estimate D2E/DX2                !
 ! D82   D(33,34,35,39)       -179.7908         estimate D2E/DX2                !
 ! D83   D(33,34,35,40)         59.3076         estimate D2E/DX2                !
 ! D84   D(36,34,35,38)         62.3981         estimate D2E/DX2                !
 ! D85   D(36,34,35,39)        -58.5575         estimate D2E/DX2                !
 ! D86   D(36,34,35,40)       -179.4592         estimate D2E/DX2                !
 ! D87   D(37,34,35,38)        179.8015         estimate D2E/DX2                !
 ! D88   D(37,34,35,39)         58.8459         estimate D2E/DX2                !
 ! D89   D(37,34,35,40)        -62.0557         estimate D2E/DX2                !
 --------------------------------------------------------------------------------
 Trust Radius=3.00D-01 FncErr=1.00D-07 GrdErr=1.00D-06
 Number of steps in this run=    212 maximum allowed number of steps=    240.
 GradGradGradGradGradGradGradGradGradGradGradGradGradGradGradGradGradGrad

                          Input orientation:                          
 ---------------------------------------------------------------------
 Center     Atomic      Atomic             Coordinates (Angstroms)
 Number     Number       Type             X           Y           Z
 ---------------------------------------------------------------------
      1          6           0       -4.347999    3.958298   -0.874404
      2          6           0       -4.411010    2.592887   -0.618809
      3          6           0       -3.232842    1.881525   -0.438244
      4          6           0       -1.960155    2.486109   -0.514258
      5          6           0       -1.948345    3.865297   -0.822176
      6          6           0       -3.116184    4.598070   -0.976933
      7          7           0       -0.806316    1.752989   -0.345457
      8          6           0        0.153793    2.124352    0.605789
      9          7           0        1.255677    1.347112    0.574961
     10          8           0       -0.024513    3.050651    1.395506
     11          6           0        2.320283    1.549979    1.530429
     12          6           0        3.231693    0.327593    1.566616
     13          6           0        4.400177    0.525629    2.529494
     14          1           0       -0.749401    0.781727   -0.737990
     15          1           0        1.380128    0.622396   -0.158123
     16          1           0        1.883222    1.737298    2.519413
     17          1           0        2.907652    2.446414    1.274207
     18          1           0        3.597269    0.118752    0.554439
     19          1           0        2.638304   -0.547115    1.858648
     20          1           0        5.016118    1.381831    2.229456
     21          1           0        5.047501   -0.357119    2.559766
     22          1           0        4.043883    0.716157    3.549117
     23          1           0       -5.363691    2.080154   -0.544817
     24          1           0       -3.056433    5.655102   -1.213163
     25          6           0       -5.605628    4.757997   -0.999167
     26          9           0       -5.487044    5.765260   -1.888154
     27          9           0       -6.655464    4.009925   -1.391011
     28          9           0       -5.970981    5.335114    0.167923
     29         17           0       -0.445220    4.673920   -1.131471
     30         17           0       -3.338704    0.186638   -0.083456
     31          8           0        1.722732   -0.707191   -1.268964
     32          8           0       -0.516220   -0.748549   -1.465416
     33          6           0        0.640325   -1.198660   -1.680620
     34          6           0        0.755953   -2.480123   -2.524158
     35          6           0       -0.575806   -3.029349   -3.020649
     36          1           0        1.284096   -3.221092   -1.910832
     37          1           0        1.427752   -2.254213   -3.361567
     38          1           0       -1.237162   -3.254758   -2.179126
     39          1           0       -0.434134   -3.942899   -3.611714
     40          1           0       -1.091882   -2.289071   -3.638822
 ---------------------------------------------------------------------
                    Distance matrix (angstroms):
                    1          2          3          4          5
     1  C    0.000000
     2  C    1.390557   0.000000
     3  C    2.397248   1.388063   0.000000
     4  C    2.828223   2.455406   1.411040   0.000000
     5  C    2.402024   2.779407   2.394304   1.413193   0.000000
     6  C    1.391829   2.413625   2.771897   2.451704   1.387355
     7  N    4.205556   3.711330   2.431699   1.377427   2.448130
     8  C    5.081384   4.749377   3.552220   2.419535   3.080415
     9  N    6.349814   5.923545   4.632385   3.581241   4.308017
    10  O    4.966774   4.848542   3.875935   2.777160   3.046784
    11  C    7.486602   7.142631   5.901084   4.835208   5.395983
    12  C    8.751705   8.265503   6.944378   5.995374   6.712263
    13  C    9.995015   9.582399   8.301139   7.318588   7.917753
    14  H    4.801992   4.086793   2.732560   2.102593   3.309526
    15  H    6.667289   6.134520   4.789924   3.841582   4.694263
    16  H    7.434982   7.085042   5.911231   4.953325   5.511398
    17  H    7.716657   7.560937   6.399786   5.186109   5.476199
    18  H    8.939295   8.463474   7.123427   6.134449   6.832680
    19  H    8.750814   8.104950   6.756061   5.998079   6.906051
    20  H   10.196020   9.922197   8.683989   7.577320   7.998988
    21  H   10.894576  10.405253   9.086456   8.163382   8.843540
    22  H   10.025104   9.611396   8.379014   7.462723   8.058045
    23  H    2.160482   1.084422   2.142739   3.427797   3.863710
    24  H    2.159177   3.400779   3.856360   3.425319   2.141058
    25  C    1.495564   2.501897   3.770787   4.322740   3.768814
    26  F    2.364365   3.582323   4.718799   5.007931   4.155546
    27  F    2.365152   2.764393   4.141521   5.013645   4.743571
    28  F    2.369839   3.251502   4.448834   4.966782   4.395709
    29  Cl   3.976164   4.507883   4.006105   2.731757   1.734623
    30  Cl   3.983679   2.688210   1.734855   2.715429   4.001417
    31  O    7.666566   6.995427   5.652367   4.932585   5.880822
    32  O    6.098052   5.201088   3.918215   3.667787   4.873635
    33  C    7.219943   6.404627   5.102201   4.658371   5.751678
    34  C    8.380053   7.487542   6.267814   6.006696   7.104529
    35  C    8.225753   7.217143   6.151856   6.214394   7.365683
    36  H    9.183590   8.240503   6.971939   6.711760   7.864525
    37  H    8.839716   8.068967   6.882680   6.485039   7.436057
    38  H    7.962901   6.833948   5.778824   6.020968   7.283013
    39  H    9.232558   8.215201   7.199139   7.297611   8.428659
    40  H    7.567954   6.631033   5.676379   5.772274   6.822263
                    6          7          8          9         10
     6  C    0.000000
     7  N    3.718702   0.000000
     8  C    4.395116   1.401638   0.000000
     9  N    5.664828   2.294280   1.348778   0.000000
    10  O    4.193018   2.307834   1.230234   2.283468   0.000000
    11  C    6.718103   3.651819   2.424571   1.444805   2.787165
    12  C    8.062392   4.689700   3.691206   2.434633   4.248200
    13  C    9.239886   6.072835   4.928320   3.792481   5.219152
    14  H    4.497025   1.049128   2.103364   2.462486   3.197700
    15  H    6.057496   2.468577   2.084066   1.038323   3.206744
    16  H    6.738139   3.929547   2.608197   2.080133   2.574396
    17  H    6.781140   4.110682   2.852060   2.103908   2.996232
    18  H    8.214612   4.782479   3.985298   2.644304   4.735054
    19  H    8.223599   4.691904   3.857355   2.673500   4.499890
    20  H    9.314476   6.377199   5.179753   4.108464   5.374793
    21  H   10.183708   6.867317   5.824440   4.606711   6.220428
    22  H    9.317776   6.306121   5.077302   4.125264   5.161372
    23  H    3.402633   4.573451   5.636353   6.753317   5.763119
    24  H    1.084754   4.587203   5.106891   6.352201   4.772930
    25  C    2.494674   5.700071   6.533215   7.822373   6.308591
    26  F    2.795288   6.355112   7.162053   8.429191   6.927537
    27  F    3.611631   6.356059   7.342246   8.575650   7.256335
    28  F    3.162877   6.306262   6.929182   8.264044   6.487388
    29  Cl   2.676506   3.046317   3.142799   4.107629   3.032756
    30  Cl   4.506501   2.989162   4.053064   4.784198   4.623177
    31  O    7.186528   3.647112   3.740842   2.799707   4.926829
    32  O    5.965297   2.756112   3.604492   3.419730   4.781273
    33  C    6.943243   3.547909   4.062855   3.456481   5.287836
    34  C    8.215118   5.010654   5.600031   4.949948   6.823661
    35  C    8.295048   5.484573   6.343816   5.952827   7.534769
    36  H    9.020750   5.617980   6.015375   5.200813   7.209652
    37  H    8.560818   5.490504   6.044395   5.338108   7.271891
    38  H    8.163510   5.350280   6.214928   5.914089   7.348925
    39  H    9.331861   6.576480   7.412457   6.954705   8.611027
    40  H    7.656119   5.221690   6.248738   6.040598   7.415954
                   11         12         13         14         15
    11  C    0.000000
    12  C    1.525190   0.000000
    13  C    2.524556   1.526993   0.000000
    14  H    3.893443   4.622397   6.104112   0.000000
    15  H    2.143714   2.547533   4.043927   2.212809   0.000000
    16  H    1.097361   2.171052   2.793440   4.295869   2.943690
    17  H    1.101929   2.163309   2.737296   4.493791   2.777038
    18  H    2.152130   1.096250   2.170496   4.582952   2.382670
    19  H    2.146315   1.096589   2.169103   4.470447   2.649175
    20  H    2.790061   2.175994   1.096581   6.512071   4.415620
    21  H    3.483429   2.179986   1.095075   6.765814   4.668618
    22  H    2.782294   2.177372   1.096758   6.431109   4.565963
    23  H    7.976916   9.022763  10.353794   4.797385   6.910404
    24  H    7.299891   8.697704   9.793876   5.412760   6.791489
    25  C    8.916854  10.213224  11.422807   6.281869   8.161577
    26  F    9.508400  10.840666  12.030232   6.971638   8.752149
    27  F    9.754496  10.957327  12.236743   6.762343   8.807163
    28  F    9.215678  10.569806  11.673434   6.987053   8.738124
    29  Cl   4.949013   6.299994   7.354513   3.923840   4.549083
    30  Cl   6.040485   6.775893   8.175127   2.736245   4.739498
    31  O    3.645337   3.374649   4.807998   2.934323   1.766110
    32  O    4.722718   4.939448   6.461717   1.710341   2.680417
    33  C    4.548419   4.425966   5.902094   2.596502   2.486272
    34  C    5.926932   5.544996   6.917681   4.012001   3.951371
    35  C    7.076008   6.841718   8.258472   4.445781   5.035372
    36  H    5.973197   5.336566   6.592751   4.640391   4.225353
    37  H    6.260999   5.848667   7.160128   4.565094   4.305717
    38  H    7.035746   6.843573   8.260873   4.313699   5.095781
    39  H    8.012500   7.647907   9.002930   5.538933   6.005061
    40  H    7.287135   7.255123   8.725444   4.238151   5.167469
                   16         17         18         19         20
    16  H    0.000000
    17  H    1.761487   0.000000
    18  H    3.069002   2.532124   0.000000
    19  H    2.495055   3.061916   1.750416   0.000000
    20  H    3.166302   2.547835   2.532624   3.084207   0.000000
    21  H    3.794848   3.753853   2.520112   2.516326   1.770321
    22  H    2.602206   3.075716   3.086172   2.535586   1.769144
    23  H    7.875583   8.476916   9.238738   8.758488  10.766833
    24  H    7.326766   7.214776   8.834441   8.962898   9.761073
    25  C    8.808399   9.109751  10.422552  10.211450  11.603619
    26  F    9.485354   9.564841  10.971512  10.950154  12.103122
    27  F    9.662578  10.049933  11.137529  10.849010  12.499620
    28  F    8.953339   9.402051  10.904643  10.563093  11.857263
    29  Cl   5.232050   4.689437   6.319302   6.760779   7.208321
    30  Cl   6.037217   6.779882   6.965576   6.327305   8.751063
    31  O    4.511439   4.221016   2.742420   3.262799   5.239212
    32  O    5.274052   5.425515   4.663991   4.587047   6.985510
    33  C    5.273037   5.211367   3.933775   4.116169   6.410553
    34  C    6.670456   6.582412   4.930008   5.146723   7.460599
    35  C    7.711033   7.782304   6.332957   6.348191   8.848261
    36  H    6.676201   6.700823   4.752145   4.815912   7.228892
    37  H    7.122187   6.765826   5.066840   5.624079   7.573422
    38  H    7.532177   7.849099   6.498051   6.217249   8.946344
    39  H    8.673264   8.709942   7.078563   7.134150   9.600899
    40  H    7.936419   7.909421   6.735665   6.868106   9.231461
                   21         22         23         24         25
    21  H    0.000000
    22  H    1.771436   0.000000
    23  H   11.134256  10.350036   0.000000
    24  H   10.772908   9.873550   4.307016   0.000000
    25  C   12.341781  11.407735   2.726868   2.710902   0.000000
    26  F   12.970897  12.078739   3.924254   2.524999   1.348680
    27  F   13.101111  12.236414   2.471586   3.961221   1.347335
    28  F   12.630494  11.535369   3.386969   3.241046   1.352274
    29  Cl   8.313036   7.597621   5.591345   2.790667   5.162788
    30  Cl   8.809696   8.244913   2.810486   5.591066   5.184090
    31  O    5.082895   5.534218   7.649253   7.957531   9.145814
    32  O    6.878248   6.934367   5.687446   6.893697   7.512756
    33  C    6.173513   6.526936   6.934615   7.801192   8.657833
    34  C    6.983610   7.609952   7.884413   9.079366   9.756315
    35  C    8.360827   8.861839   7.427019   9.210874   9.488322
    36  H    6.507827   7.275260   8.611752   9.905239  10.581365
    37  H    7.194702   7.963969   8.534900   9.342420  10.208842
    38  H    8.387515   8.744735   6.939776   9.144859   9.202176
    39  H    8.999628   9.645567   8.365618  10.234800  10.453485
    40  H    8.935712   9.331343   6.849186   8.535407   8.775127
                   26         27         28         29         30
    26  F    0.000000
    27  F    2.166462   0.000000
    28  F    2.155614   2.157526   0.000000
    29  Cl   5.213788   6.251031   5.714860   0.000000
    30  Cl   6.244463   5.227631   5.787821   5.441166   0.000000
    31  O    9.708598   9.615625   9.887735   5.803040   5.274703
    32  O    8.204725   7.767814   8.332656   5.433206   3.278842
    33  C    9.278141   8.968934   9.477166   5.997264   4.505846
    34  C   10.361750   9.916343  10.657245   7.386659   5.462129
    35  C   10.136466   9.442952  10.451753   7.932616   5.157837
    36  H   11.251816  10.751485  11.409032   8.119677   6.026790
    37  H   10.690991  10.414456  11.171232   7.515343   6.278763
    38  H    9.975314   9.096964  10.084819   8.036709   4.544394
    39  H   11.079301  10.338467  11.446565   8.966678   6.159400
    40  H    9.341014   8.699624   9.819629   7.428878   4.880366
                   31         32         33         34         35
    31  O    0.000000
    32  O    2.247934   0.000000
    33  C    1.258017   1.259567   0.000000
    34  C    2.377701   2.395351   1.538530   0.000000
    35  C    3.707303   2.761223   2.574116   1.523724   0.000000
    36  H    2.631367   3.090793   2.134870   1.097333   2.174327
    37  H    2.619022   3.105067   2.135373   1.097088   2.175156
    38  H    4.009921   2.703743   2.828604   2.166014   1.093783
    39  H    4.539863   3.849313   3.523412   2.176879   1.097271
    40  H    4.005074   2.725489   2.832683   2.166442   1.093839
                   36         37         38         39         40
    36  H    0.000000
    37  H    1.749322   0.000000
    38  H    2.535716   3.082373   0.000000
    39  H    2.523157   2.526035   1.780646   0.000000
    40  H    3.082188   2.535081   1.756238   1.780032   0.000000
 Stoichiometry    C14H16Cl2F3N2O3(1-)
 Framework group  C1[X(C14H16Cl2F3N2O3)]
 Deg. of freedom   114
 Full point group                 C1      NOp   1
 Largest Abelian subgroup         C1      NOp   1
 Largest concise Abelian subgroup C1      NOp   1
                         Standard orientation:                         
 ---------------------------------------------------------------------
 Center     Atomic      Atomic             Coordinates (Angstroms)
 Number     Number       Type             X           Y           Z
 ---------------------------------------------------------------------
      1          6           0       -3.593142    0.009795   -0.019331
      2          6           0       -2.841274    0.931834   -0.739183
      3          6           0       -1.456376    0.840011   -0.720597
      4          6           0       -0.769663   -0.150768    0.012761
      5          6           0       -1.576861   -1.034325    0.764341
      6          6           0       -2.962660   -0.975750    0.734579
      7          7           0        0.606451   -0.209592    0.025217
      8          6           0        1.283190   -1.386204   -0.324351
      9          7           0        2.620080   -1.291118   -0.173075
     10          8           0        0.698366   -2.381656   -0.749242
     11          6           0        3.478204   -2.391514   -0.547523
     12          6           0        4.919789   -1.910819   -0.677800
     13          6           0        5.866217   -3.058328   -1.023063
     14          1           0        1.161312    0.680535    0.046969
     15          1           0        3.052721   -0.449224    0.253716
     16          1           0        3.123700   -2.815837   -1.495403
     17          1           0        3.420339   -3.201251    0.197612
     18          1           0        5.225649   -1.426715    0.257002
     19          1           0        4.964332   -1.132038   -1.448529
     20          1           0        5.849702   -3.829626   -0.243758
     21          1           0        6.898859   -2.708294   -1.124622
     22          1           0        5.579144   -3.536620   -1.967363
     23          1           0       -3.319285    1.710015   -1.323914
     24          1           0       -3.539972   -1.675794    1.329005
     25          6           0       -5.086906    0.044528   -0.083963
     26          9           0       -5.659527   -0.326419    1.079412
     27          9           0       -5.561631    1.269667   -0.382259
     28          9           0       -5.584700   -0.789940   -1.024446
     29         17           0       -0.843570   -2.167862    1.853513
     30         17           0       -0.541524    1.978759   -1.656557
     31          8           0        3.965359    0.929247    0.875048
     32          8           0        2.140661    2.071109    0.227099
     33          6           0        3.316195    1.987466    0.671657
     34          6           0        4.045637    3.302468    0.996856
     35          6           0        3.216532    4.558226    0.757287
     36          1           0        4.964470    3.316179    0.397108
     37          1           0        4.373646    3.238207    2.041788
     38          1           0        2.897210    4.615371   -0.287285
     39          1           0        3.786009    5.463804    1.001473
     40          1           0        2.307406    4.541925    1.365322
 ---------------------------------------------------------------------
 Rotational constants (GHZ):      0.2813929      0.1017344      0.0840749
 General basis read from cards:  (6D, 7F)
 There are   496 symmetry adapted cartesian basis functions of A   symmetry.
 There are   496 symmetry adapted basis functions of A   symmetry.
   496 basis functions,   880 primitive gaussians,   496 cartesian basis functions
   100 alpha electrons      100 beta electrons
       nuclear repulsion energy      2459.0837517271 Hartrees.
 NAtoms=   40 NActive=   40 NUniq=   40 SFac= 1.00D+00 NAtFMM=   60 NAOKFM=F Big=F
 Integral buffers will be    131072 words long.
 Raffenetti 2 integral format.
 Two-electron integral symmetry is turned on.
 ------------------------------------------------------------------------------
 Polarizable Continuum Model (PCM)
 =================================
 Model                : PCM (using non-symmetric T matrix).
 Atomic radii         : SMD-Coulomb.
 Polarization charges : Total charges.
 Charge compensation  : None.
 Solution method      : On-the-fly selection.
 Cavity type          : VdW (van der Waals Surface) (Alpha=1.000).
 Cavity algorithm     : GePol (No added spheres)
                        Default sphere list used, NSphG=   40.
                        Lebedev-Laikov grids with approx.  5.0 points / Ang**2.
                        Smoothing algorithm: York/Karplus (Gamma=1.0000).
                        Polarization charges: spherical gaussians, with
                                              point-specific exponents (IZeta= 3).
                        Self-potential: point-specific (ISelfS= 7).
                        Self-field    : sphere-specific E.n sum rule (ISelfD= 2).
 1st derivatives      : Analytical E(r).r(x)/FMM algorithm (CHGder, D1EAlg=3).
                        Cavity 1st derivative terms included.
 Solvent              : n-Pentadecane, Eps=   2.033300 Eps(inf)=   2.049192
 ------------------------------------------------------------------------------
 ------------------------------------------------------------------------------
 Atomic radii for non-electrostatic terms: SMD-CDS.
 ------------------------------------------------------------------------------
 Nuclear repulsion after PCM non-electrostatic terms =     2459.0741833513 Hartrees.
 One-electron integrals computed using PRISM.
 NBasis=   496 RedAO= T EigKep=  1.24D-06  NBF=   496
 NBsUse=   494 1.00D-06 EigRej=  8.30D-07 NBFU=   494
 ExpMin= 4.38D-02 ExpMax= 2.52D+04 ExpMxC= 3.78D+03 IAcc=3 IRadAn=         5 AccDes= 0.00D+00
 Harris functional with IExCor= 1009 and IRadAn=       5 diagonalized for initial guess.
 HarFok:  IExCor= 1009 AccDes= 0.00D+00 IRadAn=         5 IDoV= 1 UseB2=F ITyADJ=14
 ICtDFT=  3500011 ScaDFX=  1.000000  1.000000  1.000000  1.000000
 FoFCou: FMM=F IPFlag=           0 FMFlag=      100000 FMFlg1=           0
         NFxFlg=           0 DoJE=T BraDBF=F KetDBF=T FulRan=T
         wScrn=  0.000000 ICntrl=     500 IOpCl=  0 I1Cent=   200000004 NGrid=           0
         NMat0=    1 NMatS0=      1 NMatT0=    0 NMatD0=    1 NMtDS0=    0 NMtDT0=    0
 Petite list used in FoFCou.
 Requested convergence on RMS density matrix=1.00D-08 within 128 cycles.
 Requested convergence on MAX density matrix=1.00D-06.
 Requested convergence on             energy=1.00D-06.
 No special actions if energy rises.
 Inv3:  Mode=1 IEnd=    31182528.
 Iteration    1 A*A^-1 deviation from unit magnitude is 8.55D-15 for    789.
 Iteration    1 A*A^-1 deviation from orthogonality  is 1.98D-15 for   1466    329.
 Iteration    1 A^-1*A deviation from unit magnitude is 6.44D-15 for    380.
 Iteration    1 A^-1*A deviation from orthogonality  is 1.61D-14 for   1789   1764.
 Error on total polarization charges =  0.02325
 SCF Done:  E(RM062X) =  -2097.93818185     A.U. after   16 cycles
            NFock= 16  Conv=0.52D-08     -V/T= 2.0058
 SMD-CDS (non-electrostatic) energy       (kcal/mol) =      -6.00
 (included in total energy above)

 **********************************************************************

            Population analysis using the SCF density.

 **********************************************************************

 Orbital symmetries:
       Occupied  (A) (A) (A) (A) (A) (A) (A) (A) (A) (A) (A) (A)
                 (A) (A) (A) (A) (A) (A) (A) (A) (A) (A) (A) (A)
                 (A) (A) (A) (A) (A) (A) (A) (A) (A) (A) (A) (A)
                 (A) (A) (A) (A) (A) (A) (A) (A) (A) (A) (A) (A)
                 (A) (A) (A) (A) (A) (A) (A) (A) (A) (A) (A) (A)
                 (A) (A) (A) (A) (A) (A) (A) (A) (A) (A) (A) (A)
                 (A) (A) (A) (A) (A) (A) (A) (A) (A) (A) (A) (A)
                 (A) (A) (A) (A) (A) (A) (A) (A) (A) (A) (A) (A)
                 (A) (A) (A) (A)
       Virtual   (A) (A) (A) (A) (A) (A) (A) (A) (A) (A) (A) (A)
                 (A) (A) (A) (A) (A) (A) (A) (A) (A) (A) (A) (A)
                 (A) (A) (A) (A) (A) (A) (A) (A) (A) (A) (A) (A)
                 (A) (A) (A) (A) (A) (A) (A) (A) (A) (A) (A) (A)
                 (A) (A) (A) (A) (A) (A) (A) (A) (A) (A) (A) (A)
                 (A) (A) (A) (A) (A) (A) (A) (A) (A) (A) (A) (A)
                 (A) (A) (A) (A) (A) (A) (A) (A) (A) (A) (A) (A)
                 (A) (A) (A) (A) (A) (A) (A) (A) (A) (A) (A) (A)
                 (A) (A) (A) (A) (A) (A) (A) (A) (A) (A) (A) (A)
                 (A) (A) (A) (A) (A) (A) (A) (A) (A) (A) (A) (A)
                 (A) (A) (A) (A) (A) (A) (A) (A) (A) (A) (A) (A)
                 (A) (A) (A) (A) (A) (A) (A) (A) (A) (A) (A) (A)
                 (A) (A) (A) (A) (A) (A) (A) (A) (A) (A) (A) (A)
                 (A) (A) (A) (A) (A) (A) (A) (A) (A) (A) (A) (A)
                 (A) (A) (A) (A) (A) (A) (A) (A) (A) (A) (A) (A)
                 (A) (A) (A) (A) (A) (A) (A) (A) (A) (A) (A) (A)
                 (A) (A) (A) (A) (A) (A) (A) (A) (A) (A) (A) (A)
                 (A) (A) (A) (A) (A) (A) (A) (A) (A) (A) (A) (A)
                 (A) (A) (A) (A) (A) (A) (A) (A) (A) (A) (A) (A)
                 (A) (A) (A) (A) (A) (A) (A) (A) (A) (A) (A) (A)
                 (A) (A) (A) (A) (A) (A) (A) (A) (A) (A) (A) (A)
                 (A) (A) (A) (A) (A) (A) (A) (A) (A) (A) (A) (A)
                 (A) (A) (A) (A) (A) (A) (A) (A) (A) (A) (A) (A)
                 (A) (A) (A) (A) (A) (A) (A) (A) (A) (A) (A) (A)
                 (A) (A) (A) (A) (A) (A) (A) (A) (A) (A) (A) (A)
                 (A) (A) (A) (A) (A) (A) (A) (A) (A) (A) (A) (A)
                 (A) (A) (A) (A) (A) (A) (A) (A) (A) (A) (A) (A)
                 (A) (A) (A) (A) (A) (A) (A) (A) (A) (A) (A) (A)
                 (A) (A) (A) (A) (A) (A) (A) (A) (A) (A) (A) (A)
                 (A) (A) (A) (A) (A) (A) (A) (A) (A) (A) (A) (A)
                 (A) (A) (A) (A) (A) (A) (A) (A) (A) (A) (A) (A)
                 (A) (A) (A) (A) (A) (A) (A) (A) (A) (A) (A) (A)
                 (A) (A) (A) (A) (A) (A) (A) (A) (A) (A)
 The electronic state is 1-A.
 Alpha  occ. eigenvalues -- -102.62960-102.62852 -25.27125 -25.27004 -25.26567
 Alpha  occ. eigenvalues --  -19.54009 -19.52245 -19.51806 -14.71546 -14.69809
 Alpha  occ. eigenvalues --  -10.78036 -10.60988 -10.58292 -10.58256 -10.57708
 Alpha  occ. eigenvalues --  -10.56820 -10.54870 -10.54053 -10.53986 -10.51558
 Alpha  occ. eigenvalues --  -10.49038 -10.48774 -10.47597 -10.47374  -9.77556
 Alpha  occ. eigenvalues --   -9.77454  -7.49971  -7.49871  -7.49299  -7.49267
 Alpha  occ. eigenvalues --   -7.49197  -7.49169  -1.43427  -1.34338  -1.33795
 Alpha  occ. eigenvalues --   -1.10335  -1.08359  -1.00375  -0.98718  -0.96413
 Alpha  occ. eigenvalues --   -0.94011  -0.93451  -0.90000  -0.83304  -0.82013
 Alpha  occ. eigenvalues --   -0.79614  -0.79473  -0.77066  -0.72379  -0.68746
 Alpha  occ. eigenvalues --   -0.67066  -0.65990  -0.65712  -0.64574  -0.62824
 Alpha  occ. eigenvalues --   -0.61145  -0.60298  -0.57144  -0.55759  -0.54216
 Alpha  occ. eigenvalues --   -0.53982  -0.52366  -0.50961  -0.49784  -0.49544
 Alpha  occ. eigenvalues --   -0.49369  -0.49070  -0.48551  -0.47894  -0.46470
 Alpha  occ. eigenvalues --   -0.46270  -0.46234  -0.45552  -0.45026  -0.44439
 Alpha  occ. eigenvalues --   -0.43489  -0.42566  -0.41809  -0.40934  -0.40204
 Alpha  occ. eigenvalues --   -0.39371  -0.38991  -0.38636  -0.38197  -0.36931
 Alpha  occ. eigenvalues --   -0.35650  -0.34889  -0.34817  -0.34020  -0.33680
 Alpha  occ. eigenvalues --   -0.33432  -0.32970  -0.30290  -0.27999  -0.26215
 Alpha  occ. eigenvalues --   -0.25050  -0.24910  -0.24401  -0.23899  -0.22412
 Alpha virt. eigenvalues --    0.03706   0.04224   0.05435   0.06575   0.06816
 Alpha virt. eigenvalues --    0.07201   0.07814   0.08325   0.08504   0.08752
 Alpha virt. eigenvalues --    0.08822   0.09416   0.09874   0.10227   0.10303
 Alpha virt. eigenvalues --    0.11127   0.11564   0.11802   0.12150   0.12648
 Alpha virt. eigenvalues --    0.13004   0.13184   0.13515   0.13594   0.13997
 Alpha virt. eigenvalues --    0.14561   0.14821   0.15035   0.15695   0.15778
 Alpha virt. eigenvalues --    0.16114   0.16322   0.16491   0.16807   0.17178
 Alpha virt. eigenvalues --    0.17618   0.18312   0.18491   0.19409   0.19557
 Alpha virt. eigenvalues --    0.20048   0.20385   0.20564   0.20903   0.21371
 Alpha virt. eigenvalues --    0.22021   0.22159   0.22413   0.22613   0.23059
 Alpha virt. eigenvalues --    0.23799   0.24044   0.24380   0.24608   0.24901
 Alpha virt. eigenvalues --    0.25690   0.25863   0.26880   0.27121   0.27289
 Alpha virt. eigenvalues --    0.27997   0.28405   0.28851   0.29072   0.29359
 Alpha virt. eigenvalues --    0.29914   0.30162   0.30232   0.30495   0.30701
 Alpha virt. eigenvalues --    0.31045   0.31326   0.31783   0.31949   0.32064
 Alpha virt. eigenvalues --    0.32374   0.32608   0.33218   0.33513   0.33836
 Alpha virt. eigenvalues --    0.34356   0.34734   0.34928   0.35228   0.35298
 Alpha virt. eigenvalues --    0.35441   0.35917   0.36494   0.36853   0.37060
 Alpha virt. eigenvalues --    0.37518   0.38052   0.38130   0.38946   0.39100
 Alpha virt. eigenvalues --    0.39626   0.39992   0.40332   0.40676   0.40952
 Alpha virt. eigenvalues --    0.41051   0.41700   0.41825   0.42498   0.43087
 Alpha virt. eigenvalues --    0.43408   0.43726   0.44193   0.44272   0.44504
 Alpha virt. eigenvalues --    0.44958   0.45383   0.45550   0.46532   0.46877
 Alpha virt. eigenvalues --    0.47496   0.47760   0.48348   0.48874   0.49530
 Alpha virt. eigenvalues --    0.49640   0.50919   0.51387   0.51975   0.52143
 Alpha virt. eigenvalues --    0.53359   0.53488   0.54379   0.55479   0.55969
 Alpha virt. eigenvalues --    0.57279   0.58141   0.59544   0.61939   0.63092
 Alpha virt. eigenvalues --    0.63732   0.65559   0.67137   0.68777   0.70360
 Alpha virt. eigenvalues --    0.72676   0.73113   0.74374   0.75435   0.76494
 Alpha virt. eigenvalues --    0.76965   0.77347   0.78574   0.79378   0.79930
 Alpha virt. eigenvalues --    0.80292   0.80479   0.80857   0.81286   0.81550
 Alpha virt. eigenvalues --    0.82580   0.82830   0.83742   0.84588   0.85285
 Alpha virt. eigenvalues --    0.86049   0.86509   0.86866   0.87741   0.87804
 Alpha virt. eigenvalues --    0.88476   0.89282   0.89946   0.91781   0.93005
 Alpha virt. eigenvalues --    0.93725   0.94248   0.95763   0.96322   0.97168
 Alpha virt. eigenvalues --    0.97369   0.98354   0.99197   0.99338   1.01092
 Alpha virt. eigenvalues --    1.02528   1.02642   1.03122   1.03617   1.04410
 Alpha virt. eigenvalues --    1.05592   1.05734   1.06413   1.06570   1.07505
 Alpha virt. eigenvalues --    1.07791   1.09225   1.10253   1.11398   1.12093
 Alpha virt. eigenvalues --    1.13422   1.13838   1.14667   1.14963   1.16931
 Alpha virt. eigenvalues --    1.17837   1.18548   1.18810   1.20297   1.21963
 Alpha virt. eigenvalues --    1.22736   1.23560   1.23944   1.24476   1.24806
 Alpha virt. eigenvalues --    1.25829   1.26745   1.28194   1.28715   1.29822
 Alpha virt. eigenvalues --    1.30395   1.31679   1.31992   1.32641   1.35512
 Alpha virt. eigenvalues --    1.36015   1.38459   1.41185   1.41607   1.42782
 Alpha virt. eigenvalues --    1.45042   1.45396   1.46288   1.46942   1.47414
 Alpha virt. eigenvalues --    1.47978   1.49384   1.49846   1.51108   1.52082
 Alpha virt. eigenvalues --    1.52617   1.53859   1.53950   1.54785   1.55226
 Alpha virt. eigenvalues --    1.57005   1.57178   1.58253   1.60798   1.61067
 Alpha virt. eigenvalues --    1.61682   1.63423   1.64001   1.65405   1.66559
 Alpha virt. eigenvalues --    1.67122   1.67623   1.68884   1.69534   1.72011
 Alpha virt. eigenvalues --    1.73102   1.74135   1.75021   1.76260   1.77006
 Alpha virt. eigenvalues --    1.77651   1.78741   1.79378   1.80132   1.80550
 Alpha virt. eigenvalues --    1.81931   1.83220   1.85297   1.87498   1.88104
 Alpha virt. eigenvalues --    1.90049   1.91229   1.91811   1.92579   1.93373
 Alpha virt. eigenvalues --    1.93709   1.94053   1.94338   1.95586   1.96312
 Alpha virt. eigenvalues --    1.96384   1.97526   1.98263   1.99319   2.00747
 Alpha virt. eigenvalues --    2.01083   2.02309   2.03277   2.03893   2.05095
 Alpha virt. eigenvalues --    2.06575   2.07096   2.08591   2.09024   2.09640
 Alpha virt. eigenvalues --    2.11029   2.12011   2.13927   2.14962   2.15304
 Alpha virt. eigenvalues --    2.15399   2.15832   2.16665   2.17214   2.17355
 Alpha virt. eigenvalues --    2.18058   2.18501   2.19109   2.19843   2.20704
 Alpha virt. eigenvalues --    2.22570   2.23660   2.25768   2.26309   2.28183
 Alpha virt. eigenvalues --    2.29323   2.32187   2.33217   2.34100   2.34814
 Alpha virt. eigenvalues --    2.36351   2.37677   2.38085   2.42544   2.42823
 Alpha virt. eigenvalues --    2.44526   2.45019   2.46073   2.47209   2.48252
 Alpha virt. eigenvalues --    2.49689   2.50531   2.52405   2.54980   2.57793
 Alpha virt. eigenvalues --    2.60561   2.61040   2.63806   2.65880   2.66658
 Alpha virt. eigenvalues --    2.68442   2.70187   2.71827   2.73285   2.75305
 Alpha virt. eigenvalues --    2.78305   2.79849   2.81561   2.82907   2.84086
 Alpha virt. eigenvalues --    2.85434   2.85959   2.87965   2.88703   2.94802
 Alpha virt. eigenvalues --    2.99819   3.01618   3.03405   3.05322   3.16628
 Alpha virt. eigenvalues --    3.17458   3.20300   3.22142   3.25492   3.27878
 Alpha virt. eigenvalues --    3.30233   3.32176   3.32747   3.37842   3.43652
 Alpha virt. eigenvalues --    4.31656   4.32318   4.32877   4.35244   4.38247
 Alpha virt. eigenvalues --    4.41697   4.44312   4.47431   4.49212   4.49865
 Alpha virt. eigenvalues --    4.51327   4.53170   4.54802   4.57241   4.59507
 Alpha virt. eigenvalues --    4.66837   4.70687   4.71405   4.76957   4.83110
 Alpha virt. eigenvalues --    4.92177   5.76017   6.00917   6.67357
          Condensed to atoms (all electrons):
               1          2          3          4          5          6
     1  C   15.327440  -3.090919  -0.659953   0.677802  -0.690339  -2.498856
     2  C   -3.090919  28.230861  -5.403266  -5.522865   4.113687 -12.872088
     3  C   -0.659953  -5.403266  13.265570  -4.298596  -3.289437   5.775784
     4  C    0.677802  -5.522865  -4.298596  26.830335  -0.020681  -6.325643
     5  C   -0.690339   4.113687  -3.289437  -0.020681  12.041981  -5.313432
     6  C   -2.498856 -12.872088   5.775784  -6.325643  -5.313432  26.497826
     7  N   -0.066376   0.098758   0.415060  -1.094664  -0.238297   0.240637
     8  C   -0.337350  -0.087362   0.258314  -1.413851  -0.353292   0.378420
     9  N    0.005225   0.027847   0.117184  -0.267649   0.050916   0.060507
    10  O   -0.029704   0.045178  -0.008821  -0.093402   0.038541   0.030034
    11  C   -0.017825  -0.010792   0.013485  -0.440686  -0.079483   0.039342
    12  C   -0.000256  -0.002621   0.006212  -0.020509  -0.001522   0.002799
    13  C   -0.000145  -0.000367  -0.000448   0.001800  -0.002493  -0.000179
    14  H   -0.001529   0.005502  -0.036572   0.052379   0.008468  -0.009138
    15  H   -0.000160   0.000435  -0.000429   0.003403  -0.001094  -0.000287
    16  H   -0.000125   0.000110  -0.001785  -0.009333  -0.000773  -0.000411
    17  H    0.000106  -0.000065   0.001197   0.010267   0.000397   0.000537
    18  H   -0.000012  -0.000002  -0.000094  -0.002114   0.000005   0.000005
    19  H    0.000012  -0.000013  -0.000083   0.001858  -0.000189  -0.000007
    20  H    0.000000   0.000000   0.000002   0.000119  -0.000006  -0.000001
    21  H   -0.000000   0.000000   0.000002  -0.000010   0.000001   0.000000
    22  H   -0.000000  -0.000001  -0.000012  -0.000062  -0.000015  -0.000000
    23  H    0.102660   0.090100   0.041992   0.026063  -0.029702   0.073039
    24  H    0.132561   0.104720  -0.027192   0.001110  -0.016442   0.109933
    25  C   -1.634188   0.284307  -0.036410  -0.906794  -0.156424  -0.380302
    26  F   -0.022629  -0.058709   0.004859   0.042271   0.055486  -0.025366
    27  F   -0.049473  -0.021144   0.079840   0.048785  -0.006900  -0.048020
    28  F    0.275681  -0.133227  -0.001987   0.021554  -0.003115  -0.139178
    29  Cl   0.013225   0.128941  -0.112365  -0.289649  -0.080330   0.007478
    30  Cl   0.008710  -0.195799   0.003702  -0.075664  -0.088138   0.017083
    31  O   -0.000423   0.000378   0.010733  -0.044656   0.005874   0.000551
    32  O   -0.002173  -0.000169  -0.005836   0.076496  -0.022336   0.001388
    33  C   -0.006517   0.028279   0.020704  -0.158497   0.029862   0.004213
    34  C   -0.006293   0.015815  -0.007816  -0.043190   0.017015  -0.003283
    35  C    0.001400   0.001713   0.001327  -0.003339   0.000668   0.000628
    36  H   -0.000003   0.000003  -0.000087  -0.000472  -0.000016  -0.000001
    37  H    0.000008   0.000011   0.000278   0.000054   0.000091   0.000008
    38  H   -0.000004   0.000086  -0.000173   0.000125   0.000049   0.000005
    39  H   -0.000000  -0.000010   0.000098  -0.000146   0.000002   0.000002
    40  H   -0.000024   0.000170   0.000061  -0.001790   0.000015   0.000042
               7          8          9         10         11         12
     1  C   -0.066376  -0.337350   0.005225  -0.029704  -0.017825  -0.000256
     2  C    0.098758  -0.087362   0.027847   0.045178  -0.010792  -0.002621
     3  C    0.415060   0.258314   0.117184  -0.008821   0.013485   0.006212
     4  C   -1.094664  -1.413851  -0.267649  -0.093402  -0.440686  -0.020509
     5  C   -0.238297  -0.353292   0.050916   0.038541  -0.079483  -0.001522
     6  C    0.240637   0.378420   0.060507   0.030034   0.039342   0.002799
     7  N    8.187218   0.458644  -0.352827  -0.199293   0.027115   0.018266
     8  C    0.458644   6.556169   0.171610   0.758263  -0.646406   0.131642
     9  N   -0.352827   0.171610   7.829757  -0.160744   0.290141  -0.054379
    10  O   -0.199293   0.758263  -0.160744   8.322691  -0.123542   0.011022
    11  C    0.027115  -0.646406   0.290141  -0.123542   6.695669  -0.369041
    12  C    0.018266   0.131642  -0.054379   0.011022  -0.369041   6.316465
    13  C    0.004764   0.000904  -0.010985  -0.000380  -0.052924  -0.185349
    14  H    0.095025  -0.031921   0.011453   0.002840   0.003740  -0.001782
    15  H    0.015072  -0.004478   0.141018   0.003248  -0.023028  -0.005064
    16  H    0.006219  -0.054029  -0.055302   0.002095   0.477119  -0.044000
    17  H   -0.005837   0.007553  -0.052839   0.000588   0.407159  -0.051586
    18  H    0.001233   0.001615   0.008740  -0.000020  -0.102578   0.438742
    19  H   -0.001709  -0.000412   0.002401  -0.000142  -0.064812   0.424914
    20  H    0.000020   0.004342  -0.000744   0.000008   0.001371  -0.063040
    21  H    0.000019  -0.000378   0.000444   0.000003   0.028264  -0.121218
    22  H    0.000036  -0.001250   0.001344  -0.000051  -0.021962  -0.072212
    23  H    0.000024   0.001443   0.000004  -0.000013   0.000014   0.000000
    24  H    0.000442   0.002549  -0.000017  -0.000062   0.000060  -0.000002
    25  C    0.017329  -0.103361   0.002798  -0.005683  -0.002457  -0.000033
    26  F   -0.000055  -0.000147  -0.000002  -0.000011  -0.000005   0.000000
    27  F   -0.000081  -0.000204  -0.000001  -0.000001  -0.000002   0.000000
    28  F    0.000053   0.000804   0.000004   0.000013   0.000008   0.000000
    29  Cl   0.033410  -0.023633   0.008729  -0.038351   0.038847  -0.002926
    30  Cl   0.000010   0.086727  -0.002569   0.003012   0.008284  -0.000487
    31  O    0.013194   0.010706  -0.046753  -0.000048   0.024535  -0.020358
    32  O   -0.050032  -0.047737   0.023885  -0.000985   0.006903  -0.006268
    33  C    0.019113   0.001370  -0.014409  -0.000043   0.024620  -0.010100
    34  C   -0.029625  -0.041210  -0.041427  -0.000989   0.028032  -0.012614
    35  C    0.002477  -0.003286   0.007008   0.000114  -0.002640  -0.000563
    36  H    0.000189   0.000122  -0.000403  -0.000000  -0.000219   0.000515
    37  H   -0.000189  -0.000493   0.000052  -0.000000   0.000240  -0.000137
    38  H   -0.000175  -0.000122  -0.000013  -0.000000  -0.000002  -0.000006
    39  H    0.000036   0.000062  -0.000006   0.000000  -0.000006   0.000002
    40  H    0.000149   0.000342   0.000007  -0.000000   0.000012   0.000031
              13         14         15         16         17         18
     1  C   -0.000145  -0.001529  -0.000160  -0.000125   0.000106  -0.000012
     2  C   -0.000367   0.005502   0.000435   0.000110  -0.000065  -0.000002
     3  C   -0.000448  -0.036572  -0.000429  -0.001785   0.001197  -0.000094
     4  C    0.001800   0.052379   0.003403  -0.009333   0.010267  -0.002114
     5  C   -0.002493   0.008468  -0.001094  -0.000773   0.000397   0.000005
     6  C   -0.000179  -0.009138  -0.000287  -0.000411   0.000537   0.000005
     7  N    0.004764   0.095025   0.015072   0.006219  -0.005837   0.001233
     8  C    0.000904  -0.031921  -0.004478  -0.054029   0.007553   0.001615
     9  N   -0.010985   0.011453   0.141018  -0.055302  -0.052839   0.008740
    10  O   -0.000380   0.002840   0.003248   0.002095   0.000588  -0.000020
    11  C   -0.052924   0.003740  -0.023028   0.477119   0.407159  -0.102578
    12  C   -0.185349  -0.001782  -0.005064  -0.044000  -0.051586   0.438742
    13  C    5.855714   0.000058   0.001727  -0.005744  -0.019422  -0.024216
    14  H    0.000058   0.244104   0.006573   0.000008   0.000002   0.000006
    15  H    0.001727   0.006573   0.245698   0.001985   0.000728   0.002424
    16  H   -0.005744   0.000008   0.001985   0.504373  -0.045286   0.003945
    17  H   -0.019422   0.000002   0.000728  -0.045286   0.537253  -0.005212
    18  H   -0.024216   0.000006   0.002424   0.003945  -0.005212   0.474767
    19  H   -0.044460  -0.000001  -0.000566  -0.005615   0.004395  -0.033006
    20  H    0.404488  -0.000000  -0.000010  -0.000207   0.003028  -0.004364
    21  H    0.447211  -0.000000  -0.000000  -0.000067  -0.000068  -0.002864
    22  H    0.441614  -0.000000   0.000005   0.002511  -0.000444   0.003733
    23  H    0.000000  -0.000003  -0.000000  -0.000000   0.000000  -0.000000
    24  H   -0.000000   0.000001  -0.000000   0.000000  -0.000000   0.000000
    25  C   -0.000015  -0.000206  -0.000010  -0.000007   0.000005  -0.000000
    26  F   -0.000000  -0.000000   0.000000  -0.000000   0.000000  -0.000000
    27  F   -0.000000  -0.000000  -0.000000  -0.000000   0.000000  -0.000000
    28  F    0.000000   0.000000   0.000000  -0.000000   0.000000  -0.000000
    29  Cl  -0.000014   0.002662   0.000664   0.000903  -0.000122   0.000032
    30  Cl   0.000110   0.012104   0.000212   0.000084  -0.000017  -0.000004
    31  O    0.008104  -0.002688   0.080617  -0.000493   0.000447  -0.005216
    32  O   -0.000375   0.099926  -0.001006  -0.000029   0.000039  -0.000088
    33  C   -0.003523  -0.012402  -0.003274   0.001208   0.000064  -0.000549
    34  C   -0.000780   0.019527   0.018091   0.000016   0.000017  -0.000257
    35  C   -0.000551  -0.003013  -0.003276   0.000012   0.000001  -0.000003
    36  H    0.000125  -0.000025  -0.000008  -0.000000  -0.000000  -0.000001
    37  H   -0.000013  -0.000028   0.000004  -0.000000  -0.000000  -0.000000
    38  H   -0.000001  -0.000015  -0.000000  -0.000000  -0.000000   0.000000
    39  H    0.000000   0.000000   0.000000  -0.000000   0.000000  -0.000000
    40  H    0.000002  -0.000023  -0.000001   0.000000   0.000000   0.000000
              19         20         21         22         23         24
     1  C    0.000012   0.000000  -0.000000  -0.000000   0.102660   0.132561
     2  C   -0.000013   0.000000   0.000000  -0.000001   0.090100   0.104720
     3  C   -0.000083   0.000002   0.000002  -0.000012   0.041992  -0.027192
     4  C    0.001858   0.000119  -0.000010  -0.000062   0.026063   0.001110
     5  C   -0.000189  -0.000006   0.000001  -0.000015  -0.029702  -0.016442
     6  C   -0.000007  -0.000001   0.000000  -0.000000   0.073039   0.109933
     7  N   -0.001709   0.000020   0.000019   0.000036   0.000024   0.000442
     8  C   -0.000412   0.004342  -0.000378  -0.001250   0.001443   0.002549
     9  N    0.002401  -0.000744   0.000444   0.001344   0.000004  -0.000017
    10  O   -0.000142   0.000008   0.000003  -0.000051  -0.000013  -0.000062
    11  C   -0.064812   0.001371   0.028264  -0.021962   0.000014   0.000060
    12  C    0.424914  -0.063040  -0.121218  -0.072212   0.000000  -0.000002
    13  C   -0.044460   0.404488   0.447211   0.441614   0.000000  -0.000000
    14  H   -0.000001  -0.000000  -0.000000  -0.000000  -0.000003   0.000001
    15  H   -0.000566  -0.000010  -0.000000   0.000005  -0.000000  -0.000000
    16  H   -0.005615  -0.000207  -0.000067   0.002511  -0.000000   0.000000
    17  H    0.004395   0.003028  -0.000068  -0.000444   0.000000  -0.000000
    18  H   -0.033006  -0.004364  -0.002864   0.003733  -0.000000   0.000000
    19  H    0.494693   0.003839  -0.002930  -0.004620   0.000000  -0.000000
    20  H    0.003839   0.502621  -0.026522  -0.032512   0.000000   0.000000
    21  H   -0.002930  -0.026522   0.498621  -0.027068  -0.000000  -0.000000
    22  H   -0.004620  -0.032512  -0.027068   0.504803  -0.000000   0.000000
    23  H    0.000000   0.000000  -0.000000  -0.000000   0.437530  -0.000121
    24  H   -0.000000   0.000000  -0.000000   0.000000  -0.000121   0.437999
    25  C    0.000000   0.000000  -0.000000  -0.000000  -0.004527  -0.007713
    26  F    0.000000   0.000000  -0.000000  -0.000000   0.000203   0.004278
    27  F    0.000000  -0.000000  -0.000000   0.000000   0.005509   0.000288
    28  F    0.000000   0.000000  -0.000000  -0.000000  -0.000085  -0.000584
    29  Cl  -0.000002  -0.000001   0.000000   0.000000   0.000396  -0.001448
    30  Cl   0.000035   0.000000   0.000000  -0.000000  -0.003411   0.000731
    31  O    0.000270   0.000032  -0.000007  -0.000040   0.000000  -0.000000
    32  O    0.000190   0.000001   0.000000  -0.000000   0.000002   0.000001
    33  C   -0.000854  -0.000031  -0.000123  -0.000072  -0.000010   0.000010
    34  C   -0.000821  -0.000044   0.000026  -0.000012  -0.000002   0.000001
    35  C   -0.000049  -0.000001  -0.000001   0.000001  -0.000000   0.000000
    36  H    0.000001  -0.000000   0.000000   0.000000   0.000000   0.000000
    37  H   -0.000000   0.000000  -0.000000  -0.000000   0.000000   0.000000
    38  H   -0.000000   0.000000  -0.000000  -0.000000  -0.000000   0.000000
    39  H    0.000000   0.000000   0.000000  -0.000000   0.000000   0.000000
    40  H    0.000000  -0.000000  -0.000000   0.000000  -0.000000  -0.000000
              25         26         27         28         29         30
     1  C   -1.634188  -0.022629  -0.049473   0.275681   0.013225   0.008710
     2  C    0.284307  -0.058709  -0.021144  -0.133227   0.128941  -0.195799
     3  C   -0.036410   0.004859   0.079840  -0.001987  -0.112365   0.003702
     4  C   -0.906794   0.042271   0.048785   0.021554  -0.289649  -0.075664
     5  C   -0.156424   0.055486  -0.006900  -0.003115  -0.080330  -0.088138
     6  C   -0.380302  -0.025366  -0.048020  -0.139178   0.007478   0.017083
     7  N    0.017329  -0.000055  -0.000081   0.000053   0.033410   0.000010
     8  C   -0.103361  -0.000147  -0.000204   0.000804  -0.023633   0.086727
     9  N    0.002798  -0.000002  -0.000001   0.000004   0.008729  -0.002569
    10  O   -0.005683  -0.000011  -0.000001   0.000013  -0.038351   0.003012
    11  C   -0.002457  -0.000005  -0.000002   0.000008   0.038847   0.008284
    12  C   -0.000033   0.000000   0.000000   0.000000  -0.002926  -0.000487
    13  C   -0.000015  -0.000000  -0.000000   0.000000  -0.000014   0.000110
    14  H   -0.000206  -0.000000  -0.000000   0.000000   0.002662   0.012104
    15  H   -0.000010   0.000000  -0.000000   0.000000   0.000664   0.000212
    16  H   -0.000007  -0.000000  -0.000000  -0.000000   0.000903   0.000084
    17  H    0.000005   0.000000   0.000000   0.000000  -0.000122  -0.000017
    18  H   -0.000000  -0.000000  -0.000000  -0.000000   0.000032  -0.000004
    19  H    0.000000   0.000000   0.000000   0.000000  -0.000002   0.000035
    20  H    0.000000   0.000000  -0.000000   0.000000  -0.000001   0.000000
    21  H   -0.000000  -0.000000  -0.000000  -0.000000   0.000000   0.000000
    22  H   -0.000000  -0.000000   0.000000  -0.000000   0.000000  -0.000000
    23  H   -0.004527   0.000203   0.005509  -0.000085   0.000396  -0.003411
    24  H   -0.007713   0.004278   0.000288  -0.000584  -0.001448   0.000731
    25  C    7.034632   0.117228   0.103304   0.106728  -0.011195  -0.038941
    26  F    0.117228   9.288328  -0.040890  -0.054386  -0.001625  -0.000223
    27  F    0.103304  -0.040890   9.303351  -0.051658  -0.000119  -0.001469
    28  F    0.106728  -0.054386  -0.051658   9.248954   0.000150   0.000284
    29  Cl  -0.011195  -0.001625  -0.000119   0.000150  17.113777  -0.007207
    30  Cl  -0.038941  -0.000223  -0.001469   0.000284  -0.007207  17.039090
    31  O   -0.000026   0.000000  -0.000000   0.000000  -0.001381  -0.001554
    32  O   -0.000142   0.000000  -0.000001   0.000000   0.003166  -0.026368
    33  C   -0.000548  -0.000002   0.000001   0.000000   0.005670   0.001535
    34  C   -0.000490  -0.000000  -0.000000   0.000000   0.005016  -0.010919
    35  C    0.000222   0.000000  -0.000000   0.000000  -0.000111   0.006405
    36  H   -0.000000  -0.000000  -0.000000  -0.000000   0.000002   0.000119
    37  H    0.000000   0.000000   0.000000   0.000000  -0.000002  -0.000108
    38  H    0.000002   0.000000   0.000000   0.000000  -0.000001  -0.000130
    39  H   -0.000000  -0.000000  -0.000000   0.000000  -0.000000  -0.000047
    40  H   -0.000004  -0.000000  -0.000000  -0.000000  -0.000002   0.000362
              31         32         33         34         35         36
     1  C   -0.000423  -0.002173  -0.006517  -0.006293   0.001400  -0.000003
     2  C    0.000378  -0.000169   0.028279   0.015815   0.001713   0.000003
     3  C    0.010733  -0.005836   0.020704  -0.007816   0.001327  -0.000087
     4  C   -0.044656   0.076496  -0.158497  -0.043190  -0.003339  -0.000472
     5  C    0.005874  -0.022336   0.029862   0.017015   0.000668  -0.000016
     6  C    0.000551   0.001388   0.004213  -0.003283   0.000628  -0.000001
     7  N    0.013194  -0.050032   0.019113  -0.029625   0.002477   0.000189
     8  C    0.010706  -0.047737   0.001370  -0.041210  -0.003286   0.000122
     9  N   -0.046753   0.023885  -0.014409  -0.041427   0.007008  -0.000403
    10  O   -0.000048  -0.000985  -0.000043  -0.000989   0.000114  -0.000000
    11  C    0.024535   0.006903   0.024620   0.028032  -0.002640  -0.000219
    12  C   -0.020358  -0.006268  -0.010100  -0.012614  -0.000563   0.000515
    13  C    0.008104  -0.000375  -0.003523  -0.000780  -0.000551   0.000125
    14  H   -0.002688   0.099926  -0.012402   0.019527  -0.003013  -0.000025
    15  H    0.080617  -0.001006  -0.003274   0.018091  -0.003276  -0.000008
    16  H   -0.000493  -0.000029   0.001208   0.000016   0.000012  -0.000000
    17  H    0.000447   0.000039   0.000064   0.000017   0.000001  -0.000000
    18  H   -0.005216  -0.000088  -0.000549  -0.000257  -0.000003  -0.000001
    19  H    0.000270   0.000190  -0.000854  -0.000821  -0.000049   0.000001
    20  H    0.000032   0.000001  -0.000031  -0.000044  -0.000001  -0.000000
    21  H   -0.000007   0.000000  -0.000123   0.000026  -0.000001   0.000000
    22  H   -0.000040  -0.000000  -0.000072  -0.000012   0.000001   0.000000
    23  H    0.000000   0.000002  -0.000010  -0.000002  -0.000000   0.000000
    24  H   -0.000000   0.000001   0.000010   0.000001   0.000000   0.000000
    25  C   -0.000026  -0.000142  -0.000548  -0.000490   0.000222  -0.000000
    26  F    0.000000   0.000000  -0.000002  -0.000000   0.000000  -0.000000
    27  F   -0.000000  -0.000001   0.000001  -0.000000  -0.000000  -0.000000
    28  F    0.000000   0.000000   0.000000   0.000000   0.000000  -0.000000
    29  Cl  -0.001381   0.003166   0.005670   0.005016  -0.000111   0.000002
    30  Cl  -0.001554  -0.026368   0.001535  -0.010919   0.006405   0.000119
    31  O    8.547957  -0.172619   0.530799  -0.324160   0.039416  -0.001491
    32  O   -0.172619   8.503505   0.334519  -0.136916   0.061379   0.000785
    33  C    0.530799   0.334519   5.763752  -1.018227  -0.014330  -0.085190
    34  C   -0.324160  -0.136916  -1.018227   7.633691  -0.321322   0.447291
    35  C    0.039416   0.061379  -0.014330  -0.321322   5.823343  -0.042817
    36  H   -0.001491   0.000785  -0.085190   0.447291  -0.042817   0.498668
    37  H   -0.000742   0.001157  -0.068896   0.431765  -0.044756  -0.029578
    38  H    0.000219  -0.004439  -0.003233  -0.062230   0.421727  -0.003872
    39  H   -0.000220   0.002031   0.029452  -0.070423   0.381757  -0.002056
    40  H    0.000030  -0.004533  -0.008175  -0.055261   0.420278   0.003624
              37         38         39         40
     1  C    0.000008  -0.000004  -0.000000  -0.000024
     2  C    0.000011   0.000086  -0.000010   0.000170
     3  C    0.000278  -0.000173   0.000098   0.000061
     4  C    0.000054   0.000125  -0.000146  -0.001790
     5  C    0.000091   0.000049   0.000002   0.000015
     6  C    0.000008   0.000005   0.000002   0.000042
     7  N   -0.000189  -0.000175   0.000036   0.000149
     8  C   -0.000493  -0.000122   0.000062   0.000342
     9  N    0.000052  -0.000013  -0.000006   0.000007
    10  O   -0.000000  -0.000000   0.000000  -0.000000
    11  C    0.000240  -0.000002  -0.000006   0.000012
    12  C   -0.000137  -0.000006   0.000002   0.000031
    13  C   -0.000013  -0.000001   0.000000   0.000002
    14  H   -0.000028  -0.000015   0.000000  -0.000023
    15  H    0.000004  -0.000000   0.000000  -0.000001
    16  H   -0.000000  -0.000000  -0.000000   0.000000
    17  H   -0.000000  -0.000000   0.000000   0.000000
    18  H   -0.000000   0.000000  -0.000000   0.000000
    19  H   -0.000000  -0.000000   0.000000   0.000000
    20  H    0.000000   0.000000   0.000000  -0.000000
    21  H   -0.000000  -0.000000   0.000000  -0.000000
    22  H   -0.000000  -0.000000  -0.000000   0.000000
    23  H    0.000000  -0.000000   0.000000  -0.000000
    24  H    0.000000   0.000000   0.000000  -0.000000
    25  C    0.000000   0.000002  -0.000000  -0.000004
    26  F    0.000000   0.000000  -0.000000  -0.000000
    27  F    0.000000   0.000000  -0.000000  -0.000000
    28  F    0.000000   0.000000   0.000000  -0.000000
    29  Cl  -0.000002  -0.000001  -0.000000  -0.000002
    30  Cl  -0.000108  -0.000130  -0.000047   0.000362
    31  O   -0.000742   0.000219  -0.000220   0.000030
    32  O    0.001157  -0.004439   0.002031  -0.004533
    33  C   -0.068896  -0.003233   0.029452  -0.008175
    34  C    0.431765  -0.062230  -0.070423  -0.055261
    35  C   -0.044756   0.421727   0.381757   0.420278
    36  H   -0.029578  -0.003872  -0.002056   0.003624
    37  H    0.498419   0.003644  -0.001985  -0.003932
    38  H    0.003644   0.487499  -0.029198  -0.027367
    39  H   -0.001985  -0.029198   0.536664  -0.029085
    40  H   -0.003932  -0.027367  -0.029085   0.487719
 Mulliken charges:
               1
     1  C   -1.429552
     2  C    0.222511
     3  C   -0.125045
     4  C   -0.760157
     5  C    0.031401
     6  C    0.375932
     7  N   -0.615354
     8  C    0.319321
     9  N   -0.700005
    10  O   -0.555367
    11  C   -0.156550
    12  C   -0.304536
    13  C   -0.814236
    14  H    0.534968
    15  H    0.520784
    16  H    0.222620
    17  H    0.207116
    18  H    0.245355
    19  H    0.227681
    20  H    0.207612
    21  H    0.206666
    22  H    0.206285
    23  H    0.258895
    24  H    0.258897
    25  C    1.622921
    26  F   -0.308604
    27  F   -0.321118
    28  F   -0.270014
    29  Cl   0.207416
    30  Cl   0.264455
    31  O   -0.650986
    32  O   -0.633321
    33  C    0.613831
    34  C   -0.427992
    35  C   -0.729817
    36  H    0.214798
    37  H    0.215129
    38  H    0.217625
    39  H    0.183076
    40  H    0.217353
 Sum of Mulliken charges =  -1.00000
 Mulliken charges with hydrogens summed into heavy atoms:
               1
     1  C   -1.429552
     2  C    0.481407
     3  C   -0.125045
     4  C   -0.760157
     5  C    0.031401
     6  C    0.634829
     7  N   -0.080386
     8  C    0.319321
     9  N   -0.179221
    10  O   -0.555367
[...]
 000876,-0.00000907,-0.00001719,0.00039267,-0.00003589,0.00001331,0.000
 07210,-0.00003558,0.00000255,-0.00000363,0.00000118,-0.00000079,0.0000
 0522,-0.00000164,0.00000617,0.00000781,-0.00000238,0.00000517,0.000008
 71,-0.00001150,0.00000351,0.00000423,0.00000264,0.00000183,-0.00000483
 ,0.00000446,0.00000003,-0.00000243,-0.00000277,0.00000189,-0.00000201,
 -0.00000325,0.00000178,-0.00000155,-0.00000179,0.00000534,-0.00001658,
 -0.00001510,-0.00000200,0.00000426,0.00000184,0.00000125,0.00000543,0.
 00000372,-0.00000429,0.00000696,0.00000790,-0.00000022,0.00000288,0.00
 000108,0.00001810,0.00001138,-0.00000953,0.00027044,0.00119548,-0.0012
 1701,0.00172271,-0.00091312,-0.00345347,0.00810939,-0.01437360,0.01170
 716,-0.07545165,0.09644523,-0.12543688,-0.00467364,0.00588849,-0.00577
 300,0.08489563,-0.10472472,0.13820536,-0.00001174,0.00000681,-0.000007
 33,0.00000780,0.00001494,-0.00000358,-0.00002270,-0.00008877,0.0000280
 7,0.00006295,0.00001469,0.00003000,-0.00004957,-0.00001478,0.00000190,
 0.00000887,0.00001345,-0.00000845,0.00000619,0.00028235,0.00014763,-0.
 00021587,0.00004616,-0.00008468,0.00009257,-0.00012129,-0.00003265,0.0
 0006077,-0.00000912,0.00001723,0.00001217,-0.00000455,0.00001011,-0.00
 000741,0.00000523,0.00000606,0.00000394,-0.00000435,-0.00000142,0.0000
 3450,-0.00040853,-0.00021065,-0.00005944,0.00020765,0.00009424,-0.0000
 0060,-0.00000265,-0.00000702,0.00000101,-0.00000014,0.00000031,0.00001
 366,0.,-0.00000322,-0.00000095,-0.00000086,0.00000676,-0.00000086,-0.0
 0000031,-0.00000075,-0.00000142,0.00000101,-0.00000080,-0.00000171,-0.
 00000097,-0.00000377,0.00000192,-0.00000272,0.00000167,-0.00000183,0.0
 0000282,0.00000251,0.00000988,-0.00002477,0.00001710,-0.00000202,0.000
 01469,-0.00001202,0.00000044,0.00000561,-0.00000229,-0.00000364,0.0000
 0636,-0.00000111,0.00002787,0.00001715,-0.00000822,0.00002136,0.000046
 73,-0.00002137,0.00064984,-0.00106510,-0.00203355,0.00022740,0.0026526
 0,0.00055302,-0.00555892,-0.00156836,0.00445042,-0.13450641,-0.0354285
 9,0.12137810,-0.01638769,-0.00650803,0.02239467,0.00993569,0.00326522,
 -0.01364556,0.14834613,0.00003279,-0.00001673,0.00001130,-0.00001082,0
 .00001735,-0.00000233,0.00003508,-0.00000463,0.00002949,-0.00022619,0.
 00008479,-0.00007278,0.00006308,-0.00003690,0.00000268,-0.00002486,-0.
 00000220,0.00000783,0.00010458,-0.00056557,-0.00035204,0.00017803,0.00
 000985,0.00017009,-0.00006276,0.00010832,0.00002721,-0.00005140,-0.000
 06392,-0.00009307,0.00001015,0.00001173,0.00001489,-0.00000483,-0.0000
 0956,-0.00000016,-0.00000035,0.00000470,-0.00000015,-0.00011021,0.0008
 0131,0.00059960,0.00006118,-0.00007209,0.00001437,0.,-0.00000353,-0.00
 000154,-0.00000677,-0.00000277,-0.00000395,0.00000460,0.00000508,0.000
 00230,0.00000180,-0.00000153,-0.00000061,0.00000008,0.00000080,0.00000
 002,-0.00000160,-0.00000106,0.00000159,0.00000016,-0.00000185,-0.00000
 222,0.00000265,-0.00000246,-0.00000263,0.00000317,-0.00000325,-0.00000
 133,-0.00004403,0.00002063,-0.00001416,0.00000655,-0.00001055,0.000007
 40,0.00001623,0.00000295,0.00000428,0.00001229,-0.00000882,-0.00000304
 ,-0.00001289,-0.00000676,0.00000321,0.00001126,0.00001041,-0.00001482,
 -0.00056631,-0.00096339,0.00258651,0.00220870,-0.00618904,0.00010706,0
 .01546181,0.00889147,-0.02464187,-0.03463248,-0.05700672,0.04390182,-0
 .00799561,-0.00378515,0.01064498,-0.01329173,-0.00504669,0.01831335,0.
 04029225,0.06375547,0.00004543,-0.00002593,0.00001573,-0.00001926,0.00
 000386,-0.00000067,0.00005693,0.00006171,0.00001018,-0.00025199,0.0000
 7855,-0.00007505,0.00008683,-0.00002102,-0.00000529,-0.00002918,-0.000
 01010,0.00000834,0.00010171,-0.00056116,-0.00031632,0.00018427,0.00007
 488,0.00020918,-0.00008091,-0.00000252,-0.00002814,-0.00004879,-0.0001
 1431,-0.00013051,0.00006046,0.00002127,0.00004614,0.00001321,0.0000135
 7,-0.00003909,-0.00000037,-0.00000305,0.00000772,-0.00011755,0.0008516
 8,0.00049363,0.00004421,0.00002388,0.00007080,-0.00000856,0.00000024,-
 0.00000722,-0.00001736,-0.00001878,-0.00000691,0.00001005,0.00000059,0
 .00000747,-0.00000459,-0.00001200,0.00002099,-0.00000701,-0.00001033,-
 0.00000455,-0.00000549,0.00000710,-0.00000839,-0.00000206,0.00000149,0
 .00000241,0.00000001,0.00000008,-0.00000230,0.00000287,-0.00000345,0.,
 -0.00008290,0.00006341,-0.00001412,0.00001499,-0.00002979,0.00001609,0
 .00002538,-0.00000430,0.00000436,0.00002616,-0.00002486,-0.00001235,-0
 .00002550,-0.00002106,0.00000601,-0.00000551,-0.00003283,0.00000028,-0
 .00214005,-0.00196273,0.00234796,0.00063620,-0.00427865,-0.00061480,0.
 01107691,0.00875790,-0.01340907,0.12019343,0.04670400,-0.21249840,-0.0
 0809417,-0.00316233,0.01032967,0.01042016,0.00367324,-0.01508060,-0.13
 081075,-0.04941413,0.22712564,-0.00000345,0.00000188,-0.00000117,0.000
 00388,0.00000463,-0.00000471,-0.00001468,-0.00001211,-0.00000527,0.000
 01455,-0.00000472,0.00000433,-0.00001000,-0.00000333,0.00000354,0.0000
 0247,0.00000188,-0.00000086,-0.00000603,0.00002085,-0.00001431,-0.0000
 2681,-0.00000218,0.00000642,0.00002998,-0.00002848,-0.00007659,0.00001
 238,-0.00000848,-0.00001253,0.00000797,-0.00000784,0.00000875,-0.00002
 119,-0.00001866,0.00002317,0.00000403,0.00000406,-0.00000617,0.0000151
 4,-0.00003895,0.00000204,-0.00003254,0.00007752,0.00010801,-0.00000114
 ,-0.00000537,-0.00000722,-0.00000029,0.00000634,-0.00000115,0.00000895
 ,0.00000231,-0.00000336,0.00000367,0.00000806,-0.00000814,0.00000376,0
 .00000511,0.00000152,-0.00000327,-0.00000119,0.00000238,-0.00000080,-0
 .00000327,-0.00000488,0.00000005,0.00000130,0.00000259,-0.00000074,0.0
 0000033,0.00000066,0.00000219,0.00000239,0.00001019,-0.00000016,0.0000
 0142,-0.00000303,-0.00000170,-0.00000163,-0.00000247,0.00000075,-0.000
 00156,-0.00000423,0.00000468,0.00000374,-0.00000225,0.00002139,-0.0000
 2308,-0.00001413,0.00067150,-0.00019226,-0.00050105,0.00152605,-0.0001
 1230,-0.00061193,-0.00145269,0.00144302,0.00129541,-0.01744914,-0.0075
 2701,0.02366742,-0.13686811,-0.03589949,0.12318043,0.00085864,0.000871
 88,0.00024154,-0.00466307,-0.00253981,-0.00275306,0.15058331,-0.000025
 48,0.00001576,-0.00001234,0.00001740,0.00003752,-0.00000771,-0.0000516
 4,-0.00017159,0.00006950,0.00006255,0.00002457,0.00001641,-0.00004475,
 -0.00002455,0.00000446,0.00000678,0.00002089,-0.00000753,-0.00000750,0
 .00020313,0.00010815,-0.00011636,-0.00004446,-0.00011061,0.00006326,0.
 00000358,0.00001199,0.00003010,0.00005044,0.00006096,-0.00003847,-0.00
 000968,-0.00002591,0.00000019,0.00000060,0.00000873,-0.00000030,-0.000
 00097,-0.00000188,0.00006655,-0.00032754,-0.00013329,-0.00003133,-0.00
 003345,-0.00001546,0.00000341,0.00000081,0.00000400,0.00001140,0.00000
 704,0.00000485,-0.00000403,0.00000049,-0.00000408,-0.00000247,0.000004
 63,-0.00000400,0.00000187,0.00000238,0.00000134,0.00000540,-0.00000287
 ,0.00000314,0.00000040,0.00000043,-0.00000011,0.00000535,-0.00000430,0
 .00000186,-0.00000028,0.00000204,0.00000061,0.00006289,-0.00005601,0.0
 0001085,-0.00001318,0.00002822,-0.00001629,-0.00001707,0.00000792,-0.0
 0000323,-0.00002015,0.00002093,0.00001090,0.00002751,0.00002200,-0.000
 00604,0.00007338,0.00012020,-0.00005623,0.00093807,-0.00002246,-0.0001
 3154,0.00084674,0.00005539,-0.00017588,-0.00221870,0.00054089,0.001173
 78,-0.00719014,-0.00352644,0.01066511,-0.03499366,-0.06233415,0.049146
 05,0.00054859,0.00051138,-0.00034382,-0.00244640,-0.00053574,-0.001343
 36,0.04118518,0.06292944,-0.00001130,0.00000451,-0.00000135,0.00000284
 ,-0.00001678,0.00000201,-0.00001280,0.00007699,-0.00003695,0.00007009,
 -0.00005610,0.00001814,0.00001155,0.00003536,-0.00000494,0.00000594,-0
 .00001119,0.00000440,-0.00006972,0.00005777,0.00002700,0.00006993,-0.0
 0003156,-0.00000908,-0.00004190,0.00005464,0.00003695,-0.00002170,0.00
 002991,0.00002217,-0.00000765,-0.00000173,-0.00000573,0.00000132,-0.00
 000421,-0.00000404,-0.00000204,0.00000190,-0.00000119,0.00002463,-0.00
 008400,-0.00005767,0.00002197,-0.00006063,-0.00006937,0.00000018,0.000
 00172,0.00000512,0.00000054,0.00000160,-0.00000076,-0.00000567,-0.0000
 0089,0.00000214,0.00000070,0.00000055,-0.00000421,0.00000141,0.0000006
 9,0.00000013,0.00000057,-0.00000070,-0.00000079,0.00000004,0.00000104,
 0.00000389,-0.00000351,0.00000524,0.00000204,-0.00000023,-0.00000089,-
 0.00000169,0.00002280,0.00001596,-0.00000458,-0.00000331,-0.00000819,0
 .00000667,-0.00001384,-0.00000950,-0.00000196,-0.00000441,-0.00000187,
 0.00000109,-0.00002047,-0.00001234,0.00000708,-0.00001217,-0.00002966,
 0.00002670,-0.00014092,0.00050527,0.00014604,-0.00114697,-0.00021878,0
 .00006131,0.00099526,-0.00106258,-0.00009312,-0.00699359,-0.00247742,0
 .00996306,0.12432634,0.05105932,-0.21820267,0.00066989,0.00033686,0.00
 081959,-0.00228489,-0.00168906,0.00034806,-0.13396791,-0.05389798,0.23
 454897,0.00000933,-0.00000433,0.00000133,0.00000435,0.00002000,-0.0000
 0165,0.00000527,-0.00006746,0.00003591,-0.00007908,0.00006722,-0.00001
 866,-0.00000022,-0.00003337,0.00000165,-0.00000832,0.00000823,-0.00000
 235,0.00009547,-0.00003510,0.00002820,-0.00024199,0.00009267,-0.000051
 09,0.00015057,-0.00025146,-0.00020917,0.00007125,-0.00008316,-0.000034
 00,0.00005643,0.00000297,0.00002360,-0.00002071,0.00000055,0.00001457,
 0.00000946,-0.00000168,-0.00000469,-0.00000307,0.00004217,0.00001813,-
 0.00012941,0.00033365,0.00037008,-0.00000830,-0.00000802,-0.00001827,-
 0.00000809,-0.00000641,-0.00000261,0.00002536,0.00000394,-0.00000139,0
 .00000011,-0.00000094,0.00000679,-0.00000242,-0.00000241,-0.00000070,-
 0.00000506,0.00000263,-0.00000193,-0.00000342,-0.00000250,-0.00000675,
 0.00000400,-0.00000262,-0.00000189,0.00000085,-0.00000051,-0.00000033,
 0.00000074,-0.00000653,-0.00000641,-0.00000136,0.00000293,-0.00000022,
 0.00000162,0.00000356,0.00000158,-0.00000116,0.00000265,0.00000332,0.0
 0001015,0.00000794,-0.00000238,0.00003006,0.00004017,-0.00002404,-0.00
 065437,-0.00296922,-0.00203150,0.00212289,0.00034805,0.00030668,-0.006
 95181,0.00214261,0.00111107,0.00613109,-0.02701817,-0.01729681,-0.0558
 1720,0.03745798,0.02420981,0.00115924,0.00087744,0.00024602,0.00110818
 ,0.00048645,0.00077212,-0.00336021,0.01640793,0.00790169,0.05955797,0.
 00005097,-0.00002853,0.00001885,-0.00001899,0.00000814,-0.00000332,0.0
 0005614,0.00004786,0.00000821,-0.00022513,0.00009729,-0.00004712,0.000
 05347,-0.00003230,-0.00000563,-0.00002422,-0.00000466,0.00000090,0.000
 16066,-0.00033687,-0.00014711,-0.00012310,0.00019382,0.00014205,0.0000
 8577,-0.00026702,-0.00023617,0.00004613,-0.00018489,-0.00015214,0.0001
 0338,0.00001831,0.00006158,-0.00002070,0.00000209,0.00001248,0.0000124
 8,-0.00000095,-0.00000171,-0.00012739,0.00054705,0.00026477,-0.0000710
 4,0.00042340,0.00043683,-0.00000969,-0.00001174,-0.00002821,-0.0000226
 2,-0.00001823,-0.00000693,0.00003734,0.00000923,-0.00000188,-0.0000023
 8,-0.00000687,0.00001654,-0.00000690,-0.00000779,-0.00000122,-0.000009
 88,0.00000719,-0.00000297,-0.00000343,-0.00000448,-0.00001322,-0.00000
 102,0.00000039,-0.00000067,0.00000019,-0.00000185,0.00000156,-0.000122
 74,0.00008055,-0.00001045,0.00002320,-0.00003582,0.00001706,0.00004138
 ,-0.00000358,0.00000572,0.00003804,-0.00003344,-0.00001963,-0.00000733
 ,-0.00001171,-0.00000016,-0.00000115,-0.00003866,-0.00000352,-0.001410
 59,-0.00203489,-0.00144742,-0.00040098,-0.00069888,-0.00088853,-0.0012
 5818,0.00229753,0.00097430,0.00410863,-0.01032600,-0.00582588,0.037040
 65,-0.23053896,-0.11545756,-0.00018013,0.00073579,-0.00008034,-0.00001
 038,-0.00008098,0.00047504,-0.00064798,0.00772201,0.00421193,-0.039992
 55,0.24952364,0.00003575,-0.00001986,0.00001384,-0.00001260,-0.0000052
 9,0.00000211,0.00004841,0.00005643,-0.00000833,-0.00014899,0.00005832,
 -0.00003581,0.00003198,-0.00002360,-0.00000204,-0.00001439,-0.00000587
 ,0.00000133,0.00011203,-0.00023534,-0.00008460,-0.00010161,0.00013360,
 0.00008386,0.00006128,-0.00019488,-0.00016117,0.00003518,-0.00012403,-
 0.00009958,0.00007407,0.00001093,0.00004267,-0.00001553,0.00000201,0.0
 0000965,0.00000944,-0.00000198,-0.00000151,-0.00009034,0.00038003,0.00
 016349,-0.00004966,0.00029273,0.00030087,-0.00000680,-0.00000761,-0.00
 001935,-0.00001611,-0.00001116,-0.00000498,0.00002487,0.00000339,-0.00
 000016,0.00000148,-0.00000513,0.00001015,-0.00000435,-0.00000387,-0.00
 000104,-0.00000880,0.00000505,-0.00000237,-0.00000232,-0.00000319,-0.0
 0000882,-0.00000049,0.00000020,-0.00000280,0.00000019,-0.00000153,0.00
 000062,-0.00007753,0.00004577,-0.00000939,0.00001466,-0.00002167,0.000
 01111,0.00002670,-0.00000077,0.00000461,0.00002335,-0.00001962,-0.0000
 1108,-0.00000531,-0.00000718,0.00000032,-0.00002594,-0.00003491,0.0000
 2157,-0.00098585,-0.00148689,-0.00102350,-0.00023372,-0.00093293,0.000
 02900,-0.00111472,0.00112306,0.00128718,0.00311057,-0.00742732,-0.0057
 5451,0.02388691,-0.11538307,-0.12445388,0.00019667,0.00018278,-0.00022
 778,-0.00019710,0.00028652,0.00055817,0.00308999,-0.02225268,-0.012841
 47,-0.02545773,0.12978708,0.13055452,0.00000128,-0.00000120,0.00000011
 ,-0.00000020,-0.00000594,0.00000178,0.00000813,0.00004322,-0.00001182,
 -0.00000248,-0.00000471,-0.00000641,0.00001721,0.00000882,-0.00000432,
 -0.00000113,-0.00000649,0.00000517,0.00001702,-0.00001578,0.00004099,-
 0.00009073,0.00003025,-0.00003637,0.00003645,-0.00007872,-0.00002663,0
 .00002339,-0.00002022,0.00000163,-0.00000192,0.00000641,-0.00001110,0.
 00000140,0.00000695,0.00000525,0.00000407,-0.00000183,-0.00000027,0.00
 001059,0.00002285,-0.00001801,-0.00001094,0.00007536,0.00005867,0.0000
 0121,-0.00000318,-0.00000228,0.00000002,-0.00000668,0.00000099,0.00000
 807,0.00001152,-0.00000547,-0.00000771,-0.00000315,0.00001143,-0.00000
 409,-0.00000406,-0.00000045,0.00000406,-0.00000019,0.00000306,-0.00000
 047,-0.00000129,-0.00000465,-0.00000138,0.00000213,0.00000025,0.000000
 69,-0.00000174,-0.00000247,0.00000811,0.00000863,-0.00001311,-0.000001
 50,-0.00000649,0.00000753,-0.00000488,-0.00000381,0.00000123,-0.000002
 16,0.00000006,0.00000442,-0.00001473,-0.00000730,0.00000568,0.00000034
 ,-0.00003402,-0.00000300,0.00053954,-0.00050792,0.00007593,0.00100849,
 -0.00037595,0.00017441,-0.00110678,0.00163552,0.00073329,-0.01534488,0
 .01957694,-0.01771185,-0.11596426,0.08976469,-0.07731829,-0.00476329,-
 0.00323970,-0.00172235,0.00086275,0.00058976,0.00073375,0.01014068,-0.
 01314302,0.01063732,-0.00325816,0.00284004,-0.00221365,0.12788818,-0.0
 0001996,0.00001165,-0.00000692,0.00000814,-0.00000812,-0.00000219,-0.0
 0002164,0.00000549,-0.00001743,0.00009332,-0.00004668,0.00001624,-0.00
 001009,0.00002246,0.00000136,0.00000890,-0.00000221,-0.00000075,-0.000
 06971,0.00012753,0.00005416,0.00003028,-0.00004453,-0.00003955,-0.0000
 2134,0.00006405,0.00004183,-0.00001206,0.00004570,0.00003782,-0.000020
 90,-0.00000522,-0.00001100,0.00000300,-0.00000318,-0.00000114,-0.00000
 223,0.00000033,-0.00000041,0.00004477,-0.00021129,-0.00008995,0.000010
 56,-0.00008095,-0.00007458,0.00000166,0.00000146,0.00000530,0.00000488
 ,0.00000452,0.00000079,-0.00000659,-0.00000064,0.00000014,0.00000114,0
 .00000241,-0.00000308,0.00000198,0.00000245,-0.00000005,0.00000088,-0.
 00000115,0.00000078,0.00000037,0.00000026,0.00000245,-0.00000176,0.000
 00246,0.00000502,-0.00000044,0.00000080,0.00000030,0.00004487,-0.00000
 775,0.00001821,-0.00000775,0.00000674,-0.00000655,-0.00002020,-0.00000
 639,-0.00000693,-0.00001030,0.00000429,-0.00000161,-0.00000521,-0.0000
 0221,0.00000236,-0.00000030,-0.00000309,0.00001153,0.00017631,0.000243
 30,0.00042877,-0.00023932,-0.00069029,-0.00011635,0.00012812,0.0000073
 1,-0.00090218,-0.00741810,0.01023918,-0.00862601,0.09086415,-0.1649990
 1,0.10298421,-0.00277315,-0.00055876,-0.00166094,0.00081496,0.00069703
 ,0.00024423,0.00343777,-0.00523847,0.00327484,0.01213473,-0.01700521,0
 .01584249,-0.09714973,0.17742573,-0.00000856,0.00000589,-0.00000310,0.
 00001137,0.00000885,0.00000601,-0.00000681,-0.00008478,0.00002898,0.00
 001882,0.00002265,-0.00001007,-0.00003844,-0.00003027,0.00000746,0.000
 00503,0.00001110,-0.00000381,0.00004811,0.00011896,0.00013132,-0.00019
 600,-0.00000450,-0.00013678,0.00008800,-0.00006137,0.00001953,0.000046
 89,0.00002450,0.00006017,-0.00003240,-0.00000065,-0.00003187,0.0000090
 1,0.00001612,0.00000240,0.00000169,-0.00000543,0.00000092,0.00004059,-
 0.00021044,-0.00013021,-0.00002821,0.00001168,0.00000075,0.00000393,0.
 00000185,0.00000413,0.00000948,-0.00000051,0.00000622,-0.00000151,0.00
 000347,-0.00000442,-0.00000602,-0.00000322,0.00000629,-0.00000291,-0.0
 0000203,0.00000028,0.00000700,-0.00000180,0.00000329,0.00000046,0.0000
 0102,-0.00000150,0.00000583,-0.00000492,-0.00000812,0.00000071,0.00000
 003,-0.00000195,0.00005153,-0.00006383,-0.00001946,-0.00001106,0.00002
 351,-0.00000600,-0.00000981,0.00001322,0.00000499,-0.00002087,0.000025
 16,0.00002176,0.00002138,0.00001756,-0.00000327,0.00000706,0.00006771,
 0.00000253,0.00088940,-0.00032264,-0.00012337,0.00168583,-0.00037493,0
 .00043623,-0.00240674,0.00155930,0.00038729,-0.00434269,0.00595531,-0.
 00587822,-0.07739873,0.10125989,-0.13657557,-0.00177242,-0.00133879,0.
 00049229,0.00024139,-0.00042662,0.00062499,-0.01364196,0.01724729,-0.0
 1471094,0.01012205,-0.01205311,0.01165910,0.08660960,-0.11140520,0.143
 74172\\0.00000205,-0.00000024,0.00000406,-0.00000109,0.00000148,0.0000
 0183,0.00000224,0.00000667,0.00000162,-0.00000014,-0.00000114,0.000002
 12,-0.00000219,0.00000030,0.00000174,0.00000303,0.00000353,0.00000226,
 0.00000396,-0.00000024,0.00000007,0.00000075,-0.00000282,0.00000138,-0
 .00000318,-0.00000370,0.,0.00000140,0.00000029,0.00000074,0.00000365,-
 0.00000115,0.00000063,-0.00000145,-0.00000392,-0.00000300,0.00000147,-
 0.00000320,-0.00000213,-0.00000229,0.00000063,-0.00000108,0.00000177,0
 .00000198,-0.00000136,0.00000089,-0.00000172,-0.00000238,0.00000231,-0
 .00000329,-0.00000228,0.,-0.00000272,-0.00000236,0.00000020,-0.0000022
 1,-0.00000230,0.00000149,-0.00000419,-0.00000260,0.00000076,-0.0000043
 4,-0.00000326,0.00000175,-0.00000400,-0.00000231,0.00000080,0.00000308
 ,0.00000269,0.00000183,0.00000165,0.00000306,-0.00000069,0.00000341,0.
 00000330,0.00000220,0.00000323,0.00000386,0.00000218,0.00000424,0.0000
 0436,0.00000335,0.00000348,0.00000454,0.00000268,0.00000134,0.00000112
 ,-0.00000018,-0.00000064,0.00000193,-0.00000015,-0.00000140,-0.0000004
 9,-0.00000087,0.00000204,-0.00000108,-0.00000357,-0.00000407,-0.000003
 55,-0.00000328,0.00000274,-0.00000044,-0.00000372,0.00000211,-0.000000
 97,-0.00000291,-0.00000028,-0.00000262,-0.00000350,0.00000013,-0.00000
 246,-0.00000352,0.00000096,-0.00000140,-0.00000449,0.00000069,-0.00000
 217,-0.00000353,0.00000130,-0.00000107\\\@


 The earth never tires,
 The earth is rude, silent, incomprehensible at first,
 Nature is rude and incomprehensible at first,
 Be not discouraged, keep on,
 There are divine things well envelop'd,
 I swear to you there are divine things more beautiful than words can tell.
                                 -- Walt Whitman
 Job cpu time:       0 days  7 hours 57 minutes 52.6 seconds.
 File lengths (MBytes):  RWF=   1274 Int=      0 D2E=      0 Chk=     32 Scr=      1
 Normal termination of Gaussian 09 at Tue Feb 19 18:59:06 2019.
WARNING: pbs_rusage is deprecated and values produced may not be accurate


=============================================================================
                                     Resource usage:
                                       CPU time:              21:53:23
   JobId:    5892188.r-man2            Elapsed time:          02:46:44
   Project:             q95            Requested time:        48:00:00
   Service Units:     22.23 
                                       Max physical memory:     1575MB
                                       Max virtual memory:      3114MB
                                       Requested memory:           0MB

                                       Number of cpus:               8

                                       Max jobfs disk use:       1.2GB
                                       Requested jobfs:         24.0GB
=============================================================================

