 Entering Gaussian System, Link 0=/apps/gaussian/g09e01/g09/g09
 AtFile(1): /home/507/hio507/Basis/6-31pGd.gbs
 Initial command:
 /apps/gaussian/g09e01/g09/l1.exe "/jobfs/local/5874030.r-man2/Gau-29460.inp" -scrdir="/jobfs/local/5874030.r-man2/"
 Entering Link 1 = /apps/gaussian/g09e01/g09/l1.exe PID=     29461.
  
 Copyright (c) 1988,1990,1992,1993,1995,1998,2003,2009,2015,
            Gaussian, Inc.  All Rights Reserved.
  
 This is part of the Gaussian(R) 09 program.  It is based on
 the Gaussian(R) 03 system (copyright 2003, Gaussian, Inc.),
 the Gaussian(R) 98 system (copyright 1998, Gaussian, Inc.),
 the Gaussian(R) 94 system (copyright 1995, Gaussian, Inc.),
 the Gaussian 92(TM) system (copyright 1992, Gaussian, Inc.),
 the Gaussian 90(TM) system (copyright 1990, Gaussian, Inc.),
 the Gaussian 88(TM) system (copyright 1988, Gaussian, Inc.),
 the Gaussian 86(TM) system (copyright 1986, Carnegie Mellon
 University), and the Gaussian 82(TM) system (copyright 1983,
 Carnegie Mellon University). Gaussian is a federally registered
 trademark of Gaussian, Inc.
  
 This software contains proprietary and confidential information,
 including trade secrets, belonging to Gaussian, Inc.
  
 This software is provided under written license and may be
 used, copied, transmitted, or stored only in accord with that
 written license.
  
 The following legend is applicable only to US Government
 contracts under FAR:
  
                    RESTRICTED RIGHTS LEGEND
  
 Use, reproduction and disclosure by the US Government is
 subject to restrictions as set forth in subparagraphs (a)
 and (c) of the Commercial Computer Software - Restricted
 Rights clause in FAR 52.227-19.
  
 Gaussian, Inc.
 340 Quinnipiac St., Bldg. 40, Wallingford CT 06492
  
  
 ---------------------------------------------------------------
 Warning -- This program may not be used in any manner that
 competes with the business of Gaussian, Inc. or will provide
 assistance to any competitor of Gaussian, Inc.  The licensee
 of this program is prohibited from giving any competitor of
 Gaussian, Inc. access to this program.  By using this program,
 the user acknowledges that Gaussian, Inc. is engaged in the
 business of creating and licensing software in the field of
 computational chemistry and represents and warrants to the
 licensee that it is not a competitor of Gaussian, Inc. and that
 it will not use this program in any manner prohibited above.
 ---------------------------------------------------------------
  

 Cite this work as:
 Gaussian 09, Revision E.01,
 M. J. Frisch, G. W. Trucks, H. B. Schlegel, G. E. Scuseria, 
 M. A. Robb, J. R. Cheeseman, G. Scalmani, V. Barone, B. Mennucci, 
 G. A. Petersson, H. Nakatsuji, M. Caricato, X. Li, H. P. Hratchian, 
 A. F. Izmaylov, J. Bloino, G. Zheng, J. L. Sonnenberg, M. Hada, 
 M. Ehara, K. Toyota, R. Fukuda, J. Hasegawa, M. Ishida, T. Nakajima, 
 Y. Honda, O. Kitao, H. Nakai, T. Vreven, J. A. Montgomery, Jr., 
 J. E. Peralta, F. Ogliaro, M. Bearpark, J. J. Heyd, E. Brothers, 
 K. N. Kudin, V. N. Staroverov, T. Keith, R. Kobayashi, J. Normand, 
 K. Raghavachari, A. Rendell, J. C. Burant, S. S. Iyengar, J. Tomasi, 
 M. Cossi, N. Rega, J. M. Millam, M. Klene, J. E. Knox, J. B. Cross, 
 V. Bakken, C. Adamo, J. Jaramillo, R. Gomperts, R. E. Stratmann, 
 O. Yazyev, A. J. Austin, R. Cammi, C. Pomelli, J. W. Ochterski, 
 R. L. Martin, K. Morokuma, V. G. Zakrzewski, G. A. Voth, 
 P. Salvador, J. J. Dannenberg, S. Dapprich, A. D. Daniels, 
 O. Farkas, J. B. Foresman, J. V. Ortiz, J. Cioslowski, 
 and D. J. Fox, Gaussian, Inc., Wallingford CT, 2013.
 
 ******************************************
 Gaussian 09:  ES64L-G09RevE.01 30-Nov-2015
                19-Feb-2019 
 ******************************************
 %chk=22Cl_4CF3_EtO.M062X_6-31pGd_opt.chk
 %mem=196608000
 %nproc=8
 Will use up to    8 processors via shared memory.
 ----------------------------------------------------------------------
 # M062X/Gen 6D SCF=Tight INT(grid=ultrafine) OPT IOP(2/17=4) maxdisk=3
 221225472
 ----------------------------------------------------------------------
 1/14=-1,18=20,19=15,26=4,38=1/1,3;
 2/9=110,12=2,17=4,18=5,40=1/2;
 3/5=7,8=2,11=2,16=1,25=1,30=1,71=1,74=-55,75=-5/1,2,3;
 4//1;
 5/5=2,32=2,38=5/2;
 6/7=2,8=2,9=2,10=2,28=1/1;
 7//1,2,3,16;
 1/14=-1,18=20,19=15,26=4/3(2);
 2/9=110,17=4/2;
 99//99;
 2/9=110,17=4/2;
 3/5=7,6=1,8=2,11=2,16=1,25=1,30=1,71=1,74=-55,75=-5,82=7/1,2,3;
 4/5=5,16=3,69=1/1;
 5/5=2,32=2,38=5/2;
 7//1,2,3,16;
 1/14=-1,18=20,19=15,26=4/3(-5);
 2/9=110,17=4/2;
 6/7=2,8=2,9=2,10=2,19=2,28=1/1;
 99/9=1/99;
 -------------------------------
 22Cl_4CF3_EtO.M062X_6-31pGd_opt
 -------------------------------
 Symbolic Z-matrix:
 Charge = -1 Multiplicity = 1
 C                    -4.39892   4.10143  -0.83028 
 C                    -4.47379   2.73744  -0.53366 
 C                    -3.31813   1.98996  -0.29205 
 C                    -2.04179   2.60032  -0.32467 
 C                    -1.96886   3.9866   -0.64649 
 C                    -3.14037   4.71415  -0.89112 
 N                    -0.88284   1.78927  -0.07169 
 C                     0.19885   2.16524   0.67635 
 N                     1.24393   1.30434   0.83775 
 O                     0.21766   3.24756   1.2447 
 C                     2.39686   1.65327   1.65097 
 C                     3.42637   0.51851   1.66589 
 C                     4.63609   0.88137   2.52209 
 H                    -0.90039   0.71251  -0.45274 
 H                     1.21329   0.2862    0.31811 
 H                     2.0617    1.85523   2.69233 
 H                     2.87123   2.57117   1.23864 
 H                     3.76918   0.3146    0.62814 
 H                     2.95757  -0.40214   2.07674 
 H                     5.13551   1.78861   2.12012 
 H                     5.3631    0.04212   2.51371 
 H                     4.3238    1.07094   3.57119 
 H                    -5.44081   2.25024  -0.48871 
 H                    -3.059     5.764    -1.14336 
 C                    -5.67036   4.87139  -1.08946 
 F                    -5.41811   6.20292  -1.37197 
 F                    -6.33606   4.31244  -2.1653 
 F                    -6.48358   4.80589   0.02737 
 Cl                   -0.46098   4.87417  -0.86954 
 Cl                   -3.52982   0.28542   0.09731 
 O                     1.41455  -1.45748  -1.0056 
 O                    -0.63349  -1.02546  -1.77496 
 C                     0.49727  -1.76691  -1.75439 
 C                     0.64843  -2.97187  -2.64239 
 C                    -0.58207  -3.22076  -3.51216 
 H                     0.82494  -3.86613  -2.00687 
 H                     1.53022  -2.82359  -3.30207 
 H                    -1.47592  -3.39558  -2.87572 
 H                    -0.41551  -4.11869  -4.14377 
 H                    -0.76833  -2.34966  -4.17618 
 
 Add virtual bond connecting atoms O31        and H15        Dist= 4.15D+00.
 Add virtual bond connecting atoms O32        and H14        Dist= 4.16D+00.

 GradGradGradGradGradGradGradGradGradGradGradGradGradGradGradGradGradGrad
 Berny optimization.
 Initialization pass.
                           ----------------------------
                           !    Initial Parameters    !
                           ! (Angstroms and Degrees)  !
 --------------------------                            --------------------------
 ! Name  Definition              Value          Derivative Info.                !
 --------------------------------------------------------------------------------
 ! R1    R(1,2)                  1.3979         estimate D2E/DX2                !
 ! R2    R(1,6)                  1.4011         estimate D2E/DX2                !
 ! R3    R(1,25)                 1.5088         estimate D2E/DX2                !
 ! R4    R(2,3)                  1.3974         estimate D2E/DX2                !
 ! R5    R(2,23)                 1.0837         estimate D2E/DX2                !
 ! R6    R(3,4)                  1.4151         estimate D2E/DX2                !
 ! R7    R(3,30)                 1.7612         estimate D2E/DX2                !
 ! R8    R(4,5)                  1.425          estimate D2E/DX2                !
 ! R9    R(4,7)                  1.437          estimate D2E/DX2                !
 ! R10   R(5,6)                  1.4006         estimate D2E/DX2                !
 ! R11   R(5,29)                 1.7639         estimate D2E/DX2                !
 ! R12   R(6,24)                 1.0828         estimate D2E/DX2                !
 ! R13   R(7,8)                  1.3678         estimate D2E/DX2                !
 ! R14   R(7,14)                 1.1423         estimate D2E/DX2                !
 ! R15   R(8,9)                  1.3636         estimate D2E/DX2                !
 ! R16   R(8,10)                 1.2226         estimate D2E/DX2                !
 ! R17   R(9,11)                 1.4534         estimate D2E/DX2                !
 ! R18   R(9,15)                 1.1435         estimate D2E/DX2                !
 ! R19   R(11,12)                1.5323         estimate D2E/DX2                !
 ! R20   R(11,16)                1.1125         estimate D2E/DX2                !
 ! R21   R(11,17)                1.1125         estimate D2E/DX2                !
 ! R22   R(12,13)                1.5258         estimate D2E/DX2                !
 ! R23   R(12,18)                1.1118         estimate D2E/DX2                !
 ! R24   R(12,19)                1.1118         estimate D2E/DX2                !
 ! R25   R(13,20)                1.1109         estimate D2E/DX2                !
 ! R26   R(13,21)                1.1104         estimate D2E/DX2                !
 ! R27   R(13,22)                1.1109         estimate D2E/DX2                !
 ! R28   R(14,32)                2.2            estimate D2E/DX2                !
 ! R29   R(15,31)                2.1984         estimate D2E/DX2                !
 ! R30   R(25,26)                1.3843         estimate D2E/DX2                !
 ! R31   R(25,27)                1.3831         estimate D2E/DX2                !
 ! R32   R(25,28)                1.3831         estimate D2E/DX2                !
 ! R33   R(31,33)                1.2239         estimate D2E/DX2                !
 ! R34   R(32,33)                1.3523         estimate D2E/DX2                !
 ! R35   R(33,34)                1.5044         estimate D2E/DX2                !
 ! R36   R(34,35)                1.5273         estimate D2E/DX2                !
 ! R37   R(34,36)                1.1112         estimate D2E/DX2                !
 ! R38   R(34,37)                1.1112         estimate D2E/DX2                !
 ! R39   R(35,38)                1.1111         estimate D2E/DX2                !
 ! R40   R(35,39)                1.1104         estimate D2E/DX2                !
 ! R41   R(35,40)                1.111          estimate D2E/DX2                !
 ! A1    A(2,1,6)              118.9495         estimate D2E/DX2                !
 ! A2    A(2,1,25)             119.2912         estimate D2E/DX2                !
 ! A3    A(6,1,25)             121.7565         estimate D2E/DX2                !
 ! A4    A(1,2,3)              120.9537         estimate D2E/DX2                !
 ! A5    A(1,2,23)             119.6859         estimate D2E/DX2                !
 ! A6    A(3,2,23)             119.3604         estimate D2E/DX2                !
 ! A7    A(2,3,4)              120.7441         estimate D2E/DX2                !
 ! A8    A(2,3,30)             117.1631         estimate D2E/DX2                !
 ! A9    A(4,3,30)             122.0681         estimate D2E/DX2                !
 ! A10   A(3,4,5)              118.0957         estimate D2E/DX2                !
 ! A11   A(3,4,7)              118.6795         estimate D2E/DX2                !
 ! A12   A(5,4,7)              123.1989         estimate D2E/DX2                !
 ! A13   A(4,5,6)              120.1313         estimate D2E/DX2                !
 ! A14   A(4,5,29)             124.1823         estimate D2E/DX2                !
 ! A15   A(6,5,29)             115.5677         estimate D2E/DX2                !
 ! A16   A(1,6,5)              121.1041         estimate D2E/DX2                !
 ! A17   A(1,6,24)             120.1079         estimate D2E/DX2                !
 ! A18   A(5,6,24)             118.783          estimate D2E/DX2                !
 ! A19   A(4,7,8)              125.3754         estimate D2E/DX2                !
 ! A20   A(4,7,14)             117.4447         estimate D2E/DX2                !
 ! A21   A(8,7,14)             116.9788         estimate D2E/DX2                !
 ! A22   A(7,8,9)              119.8202         estimate D2E/DX2                !
 ! A23   A(7,8,10)             120.6448         estimate D2E/DX2                !
 ! A24   A(9,8,10)             119.4776         estimate D2E/DX2                !
 ! A25   A(8,9,11)             121.5089         estimate D2E/DX2                !
 ! A26   A(8,9,15)             119.1969         estimate D2E/DX2                !
 ! A27   A(11,9,15)            119.2939         estimate D2E/DX2                !
 ! A28   A(9,11,12)            111.1397         estimate D2E/DX2                !
 ! A29   A(9,11,16)            109.1696         estimate D2E/DX2                !
 ! A30   A(9,11,17)            109.2059         estimate D2E/DX2                !
 ! A31   A(12,11,16)           109.133          estimate D2E/DX2                !
 ! A32   A(12,11,17)           109.1573         estimate D2E/DX2                !
 ! A33   A(16,11,17)           109.004          estimate D2E/DX2                !
 ! A34   A(11,12,13)           111.2255         estimate D2E/DX2                !
 ! A35   A(11,12,18)           109.5068         estimate D2E/DX2                !
 ! A36   A(11,12,19)           109.4835         estimate D2E/DX2                !
 ! A37   A(13,12,18)           108.8402         estimate D2E/DX2                !
 ! A38   A(13,12,19)           108.8964         estimate D2E/DX2                !
 ! A39   A(18,12,19)           108.8484         estimate D2E/DX2                !
 ! A40   A(12,13,20)           110.3405         estimate D2E/DX2                !
 ! A41   A(12,13,21)           109.5796         estimate D2E/DX2                !
 ! A42   A(12,13,22)           110.3424         estimate D2E/DX2                !
 ! A43   A(20,13,21)           108.6739         estimate D2E/DX2                !
 ! A44   A(20,13,22)           109.192          estimate D2E/DX2                !
 ! A45   A(21,13,22)           108.6728         estimate D2E/DX2                !
 ! A46   A(7,14,32)            160.6052         estimate D2E/DX2                !
 ! A47   A(1,25,26)            111.8601         estimate D2E/DX2                !
 ! A48   A(1,25,27)            109.4489         estimate D2E/DX2                !
 ! A49   A(1,25,28)            109.4262         estimate D2E/DX2                !
 ! A50   A(26,25,27)           108.522          estimate D2E/DX2                !
 ! A51   A(26,25,28)           108.5105         estimate D2E/DX2                !
 ! A52   A(27,25,28)           109.024          estimate D2E/DX2                !
 ! A53   A(15,31,33)           120.0203         estimate D2E/DX2                !
 ! A54   A(14,32,33)           121.6971         estimate D2E/DX2                !
 ! A55   A(31,33,32)           119.827          estimate D2E/DX2                !
 ! A56   A(31,33,34)           119.2308         estimate D2E/DX2                !
 ! A57   A(32,33,34)           120.9421         estimate D2E/DX2                !
 ! A58   A(33,34,35)           112.6882         estimate D2E/DX2                !
 ! A59   A(33,34,36)           108.8417         estimate D2E/DX2                !
 ! A60   A(33,34,37)           108.861          estimate D2E/DX2                !
 ! A61   A(35,34,36)           108.8165         estimate D2E/DX2                !
 ! A62   A(35,34,37)           108.8452         estimate D2E/DX2                !
 ! A63   A(36,34,37)           108.7159         estimate D2E/DX2                !
 ! A64   A(34,35,38)           110.3393         estimate D2E/DX2                !
 ! A65   A(34,35,39)           109.5645         estimate D2E/DX2                !
 ! A66   A(34,35,40)           110.344          estimate D2E/DX2                !
 ! A67   A(38,35,39)           108.6178         estimate D2E/DX2                !
 ! A68   A(38,35,40)           109.3189         estimate D2E/DX2                !
 ! A69   A(39,35,40)           108.6153         estimate D2E/DX2                !
 ! A70   L(9,15,31,2,-1)       182.9564         estimate D2E/DX2                !
 ! A71   L(9,15,31,2,-2)       167.6229         estimate D2E/DX2                !
 ! D1    D(6,1,2,3)              0.3879         estimate D2E/DX2                !
 ! D2    D(6,1,2,23)          -179.6785         estimate D2E/DX2                !
 ! D3    D(25,1,2,3)           179.79           estimate D2E/DX2                !
 ! D4    D(25,1,2,23)           -0.2765         estimate D2E/DX2                !
 ! D5    D(2,1,6,5)             -0.6896         estimate D2E/DX2                !
 ! D6    D(2,1,6,24)           178.4889         estimate D2E/DX2                !
 ! D7    D(25,1,6,5)           179.9238         estimate D2E/DX2                !
 ! D8    D(25,1,6,24)           -0.8978         estimate D2E/DX2                !
 ! D9    D(2,1,25,26)         -179.7628         estimate D2E/DX2                !
 ! D10   D(2,1,25,27)          -59.454          estimate D2E/DX2                !
 ! D11   D(2,1,25,28)           59.9582         estimate D2E/DX2                !
 ! D12   D(6,1,25,26)           -0.3782         estimate D2E/DX2                !
 ! D13   D(6,1,25,27)          119.9306         estimate D2E/DX2                !
 ! D14   D(6,1,25,28)         -120.6572         estimate D2E/DX2                !
 ! D15   D(1,2,3,4)              0.8264         estimate D2E/DX2                !
 ! D16   D(1,2,3,30)           179.0563         estimate D2E/DX2                !
 ! D17   D(23,2,3,4)          -179.1073         estimate D2E/DX2                !
 ! D18   D(23,2,3,30)           -0.8775         estimate D2E/DX2                !
 ! D19   D(2,3,4,5)             -1.6965         estimate D2E/DX2                !
 ! D20   D(2,3,4,7)           -179.9054         estimate D2E/DX2                !
 ! D21   D(30,3,4,5)          -179.838          estimate D2E/DX2                !
 ! D22   D(30,3,4,7)             1.9531         estimate D2E/DX2                !
 ! D23   D(3,4,5,6)              1.3907         estimate D2E/DX2                !
 ! D24   D(3,4,5,29)          -174.4674         estimate D2E/DX2                !
 ! D25   D(7,4,5,6)            179.5128         estimate D2E/DX2                !
 ! D26   D(7,4,5,29)             3.6547         estimate D2E/DX2                !
 ! D27   D(3,4,7,8)           -139.1797         estimate D2E/DX2                !
 ! D28   D(3,4,7,14)            35.494          estimate D2E/DX2                !
 ! D29   D(5,4,7,8)             42.7086         estimate D2E/DX2                !
 ! D30   D(5,4,7,14)          -142.6177         estimate D2E/DX2                !
 ! D31   D(4,5,6,1)             -0.215          estimate D2E/DX2                !
 ! D32   D(4,5,6,24)          -179.4042         estimate D2E/DX2                !
 ! D33   D(29,5,6,1)           175.9871         estimate D2E/DX2                !
 ! D34   D(29,5,6,24)           -3.202          estimate D2E/DX2                !
 ! D35   D(4,7,8,9)           -179.6749         estimate D2E/DX2                !
 ! D36   D(4,7,8,10)             3.0918         estimate D2E/DX2                !
 ! D37   D(14,7,8,9)             5.629          estimate D2E/DX2                !
 ! D38   D(14,7,8,10)         -171.6042         estimate D2E/DX2                !
 ! D39   D(4,7,14,32)           90.6163         estimate D2E/DX2                !
 ! D40   D(8,7,14,32)          -94.2558         estimate D2E/DX2                !
 ! D41   D(7,8,9,11)          -178.4989         estimate D2E/DX2                !
 ! D42   D(7,8,9,15)             1.7134         estimate D2E/DX2                !
 ! D43   D(10,8,9,11)           -1.2333         estimate D2E/DX2                !
 ! D44   D(10,8,9,15)          178.979          estimate D2E/DX2                !
 ! D45   D(8,9,11,12)         -179.8757         estimate D2E/DX2                !
 ! D46   D(8,9,11,16)           59.6959         estimate D2E/DX2                !
 ! D47   D(8,9,11,17)          -59.3933         estimate D2E/DX2                !
 ! D48   D(15,9,11,12)          -0.0882         estimate D2E/DX2                !
 ! D49   D(15,9,11,16)        -120.5166         estimate D2E/DX2                !
 ! D50   D(15,9,11,17)         120.3942         estimate D2E/DX2                !
 ! D51   D(8,9,31,33)           -5.7987         estimate D2E/DX2                !
 ! D52   D(11,9,31,33)        -176.7049         estimate D2E/DX2                !
 ! D53   D(9,11,12,13)        -179.8537         estimate D2E/DX2                !
 ! D54   D(9,11,12,18)          59.8075         estimate D2E/DX2                !
 ! D55   D(9,11,12,19)         -59.46           estimate D2E/DX2                !
 ! D56   D(16,11,12,13)        -59.4036         estimate D2E/DX2                !
 ! D57   D(16,11,12,18)       -179.7425         estimate D2E/DX2                !
 ! D58   D(16,11,12,19)         60.99           estimate D2E/DX2                !
 ! D59   D(17,11,12,13)         59.6353         estimate D2E/DX2                !
 ! D60   D(17,11,12,18)        -60.7035         estimate D2E/DX2                !
 ! D61   D(17,11,12,19)       -179.9711         estimate D2E/DX2                !
 ! D62   D(11,12,13,20)        -60.3698         estimate D2E/DX2                !
 ! D63   D(11,12,13,21)       -179.9926         estimate D2E/DX2                !
 ! D64   D(11,12,13,22)         60.3848         estimate D2E/DX2                !
 ! D65   D(18,12,13,20)         60.362          estimate D2E/DX2                !
 ! D66   D(18,12,13,21)        -59.2608         estimate D2E/DX2                !
 ! D67   D(18,12,13,22)       -178.8834         estimate D2E/DX2                !
 ! D68   D(19,12,13,20)        178.8906         estimate D2E/DX2                !
 ! D69   D(19,12,13,21)         59.2678         estimate D2E/DX2                !
 ! D70   D(19,12,13,22)        -60.3548         estimate D2E/DX2                !
 ! D71   D(7,14,32,33)          90.6638         estimate D2E/DX2                !
 ! D72   D(15,31,33,32)          0.6913         estimate D2E/DX2                !
 ! D73   D(15,31,33,34)       -179.3703         estimate D2E/DX2                !
 ! D74   D(14,32,33,31)         -1.557          estimate D2E/DX2                !
 ! D75   D(14,32,33,34)        178.5056         estimate D2E/DX2                !
 ! D76   D(31,33,34,35)        179.9747         estimate D2E/DX2                !
 ! D77   D(31,33,34,36)         59.1744         estimate D2E/DX2                !
 ! D78   D(31,33,34,37)        -59.1755         estimate D2E/DX2                !
 ! D79   D(32,33,34,35)         -0.0876         estimate D2E/DX2                !
 ! D80   D(32,33,34,36)       -120.8879         estimate D2E/DX2                !
 ! D81   D(32,33,34,37)        120.7622         estimate D2E/DX2                !
 ! D82   D(33,34,35,38)        -60.4254         estimate D2E/DX2                !
 ! D83   D(33,34,35,39)       -179.9688         estimate D2E/DX2                !
 ! D84   D(33,34,35,40)         60.488          estimate D2E/DX2                !
 ! D85   D(36,34,35,38)         60.3892         estimate D2E/DX2                !
 ! D86   D(36,34,35,39)        -59.1542         estimate D2E/DX2                !
 ! D87   D(36,34,35,40)       -178.6974         estimate D2E/DX2                !
 ! D88   D(37,34,35,38)        178.7158         estimate D2E/DX2                !
 ! D89   D(37,34,35,39)         59.1723         estimate D2E/DX2                !
 ! D90   D(37,34,35,40)        -60.3708         estimate D2E/DX2                !
 --------------------------------------------------------------------------------
 Trust Radius=3.00D-01 FncErr=1.00D-07 GrdErr=1.00D-06
 Number of steps in this run=    212 maximum allowed number of steps=    240.
 GradGradGradGradGradGradGradGradGradGradGradGradGradGradGradGradGradGrad

                          Input orientation:                          
 ---------------------------------------------------------------------
 Center     Atomic      Atomic             Coordinates (Angstroms)
 Number     Number       Type             X           Y           Z
 ---------------------------------------------------------------------
      1          6           0       -4.398920    4.101430   -0.830280
      2          6           0       -4.473790    2.737440   -0.533660
      3          6           0       -3.318130    1.989960   -0.292050
      4          6           0       -2.041790    2.600320   -0.324670
      5          6           0       -1.968860    3.986600   -0.646490
      6          6           0       -3.140370    4.714150   -0.891120
      7          7           0       -0.882840    1.789270   -0.071690
      8          6           0        0.198850    2.165240    0.676350
      9          7           0        1.243930    1.304340    0.837750
     10          8           0        0.217660    3.247560    1.244700
     11          6           0        2.396860    1.653270    1.650970
     12          6           0        3.426370    0.518510    1.665890
     13          6           0        4.636090    0.881370    2.522090
     14          1           0       -0.900390    0.712510   -0.452740
     15          1           0        1.213290    0.286200    0.318110
     16          1           0        2.061700    1.855230    2.692330
     17          1           0        2.871230    2.571170    1.238640
     18          1           0        3.769180    0.314600    0.628140
     19          1           0        2.957570   -0.402140    2.076740
     20          1           0        5.135510    1.788610    2.120120
     21          1           0        5.363100    0.042120    2.513710
     22          1           0        4.323800    1.070940    3.571190
     23          1           0       -5.440810    2.250240   -0.488710
     24          1           0       -3.059000    5.764000   -1.143360
     25          6           0       -5.670360    4.871390   -1.089460
     26          9           0       -5.418110    6.202920   -1.371970
     27          9           0       -6.336060    4.312440   -2.165300
     28          9           0       -6.483580    4.805890    0.027370
     29         17           0       -0.460980    4.874170   -0.869540
     30         17           0       -3.529820    0.285420    0.097310
     31          8           0        1.414550   -1.457480   -1.005600
     32          8           0       -0.633490   -1.025460   -1.774960
     33          6           0        0.497270   -1.766910   -1.754390
     34          6           0        0.648430   -2.971870   -2.642390
     35          6           0       -0.582070   -3.220760   -3.512160
     36          1           0        0.824940   -3.866130   -2.006870
     37          1           0        1.530220   -2.823590   -3.302070
     38          1           0       -1.475920   -3.395580   -2.875720
     39          1           0       -0.415510   -4.118690   -4.143770
     40          1           0       -0.768330   -2.349660   -4.176180
 ---------------------------------------------------------------------
                    Distance matrix (angstroms):
                    1          2          3          4          5
     1  C    0.000000
     2  C    1.397876   0.000000
     3  C    2.432304   1.397373   0.000000
     4  C    2.839900   2.444811   1.415149   0.000000
     5  C    2.439704   2.801394   2.435719   1.425012   0.000000
     6  C    1.401098   2.411051   2.794941   2.448677   1.400574
     7  N    4.276022   3.742641   2.453461   1.436999   2.517557
     8  C    5.211358   4.860566   3.652077   2.492349   3.125096
     9  N    6.515197   6.052013   4.749623   3.718433   4.440665
    10  O    5.132976   5.043064   4.055240   2.826120   2.983898
    11  C    7.637586   7.290670   6.045643   4.949916   5.457313
    12  C    8.961213   8.495540   7.175442   6.180375   6.817863
    13  C   10.160639   9.786343   8.509875   7.460088   7.956615
    14  H    4.885389   4.108050   2.739191   2.209756   3.449468
    15  H    6.882709   6.251157   4.879432   4.045227   4.974886
    16  H    7.693751   7.341521   6.153637   5.147434   5.651183
    17  H    7.712147   7.557646   6.402265   5.155827   5.383645
    18  H    9.120577   8.669861   7.340541   6.316624   6.930611
    19  H    9.102244   8.479166   7.121637   6.306753   7.137698
    20  H   10.244967  10.014064   8.793357   7.625582   7.934568
    21  H   11.088611  10.644981   9.328994   8.332658   8.905247
    22  H   10.229499   9.850107   8.612103   7.618232   8.117110
    23  H    2.151536   1.083749   2.147601   3.420936   3.885135
    24  H    2.158134   3.396090   3.877532   3.422549   2.143464
    25  C    1.508831   2.508871   3.804141   4.348469   3.831472
    26  F    2.397590   3.688368   4.829614   5.047286   4.163619
    27  F    2.362057   2.934438   4.243923   4.975945   4.635234
    28  F    2.361702   2.938111   4.248713   4.971717   4.637674
    29  Cl   4.013233   4.558626   4.100667   2.822452   1.763869
    30  Cl   4.022150   2.702148   1.761213   2.784073   4.085164
    31  O    8.045412   7.245180   5.898496   5.373611   6.419847
    32  O    6.430854   5.517984   4.301055   4.151257   5.308239
    33  C    7.698316   6.818415   5.550657   5.250107   6.357053
    34  C    8.876433   7.954879   6.773290   6.607451   7.697670
    35  C    8.681894   7.714732   6.708706   6.795281   7.879168
    36  H    9.599744   8.593836   7.375597   7.270689   8.445195
    37  H    9.445652   8.639287   7.465720   7.144436   8.103971
    38  H    8.302585   7.217091   6.250850   6.540557   7.727162
    39  H    9.716848   8.746945   7.783094   7.897810   8.963235
    40  H    8.123595   7.271655   6.357692   6.399854   7.351746
                    6          7          8          9         10
     6  C    0.000000
     7  N    3.784552   0.000000
     8  C    4.483781   1.367834   0.000000
     9  N    5.817034   2.363343   1.363595   0.000000
    10  O    4.241342   2.251798   1.222617   2.234937   0.000000
    11  C    6.818513   3.707086   2.458301   1.453384   2.730518
    12  C    8.201449   4.816981   3.756034   2.463004   4.233313
    13  C    9.317378   6.165271   4.974352   3.810860   5.172340
    14  H    4.606822   1.142331   2.143268   2.571718   3.249279
    15  H    6.326400   2.608625   2.165229   1.143492   3.258758
    16  H    6.933691   4.039118   2.762334   2.100403   2.726664
    17  H    6.728118   4.052329   2.760899   2.100875   2.738425
    18  H    8.331031   4.930082   4.021747   2.720369   4.647117
    19  H    8.495263   4.915972   4.020332   2.717302   4.638934
    20  H    9.279900   6.405042   5.157222   4.125941   5.203859
    21  H   10.282496   6.982019   5.878181   4.622727   6.193608
    22  H    9.428628   6.394972   5.156821   4.124533   5.197174
    23  H    3.394821   4.600162   5.759371   6.880405   6.001470
    24  H    1.082789   4.656461   5.184207   6.506041   4.771981
    25  C    2.542619   5.784087   6.699922   8.015322   6.538647
    26  F    2.763287   6.460628   7.214479   8.559306   6.880626
    27  F    3.463718   6.362955   7.442479   8.690410   7.464135
    28  F    3.468298   6.362240   7.214505   8.522440   6.986909
    29  Cl   2.684251   3.214209   3.188017   4.308740   2.752530
    30  Cl   4.554373   3.049037   4.215684   4.937118   4.912676
    31  O    7.671337   4.085532   4.175043   3.324861   5.351056
    32  O    6.325247   3.299395   4.108805   3.972270   5.301085
    33  C    7.482099   4.169244   4.632424   4.087697   5.849584
    34  C    8.746248   5.623321   6.132378   5.545446   7.346859
    35  C    8.739425   6.085039   6.867492   6.537012   8.068857
    36  H    9.517867   6.216509   6.630919   5.916179   7.845131
    37  H    9.189375   6.126719   6.518343   5.853194   7.697714
    38  H    8.513328   5.924272   6.807700   6.578502   7.998586
    39  H    9.799166   7.190565   7.943474   7.548413   9.148669
    40  H    8.143439   5.830154   6.698269   6.522300   7.854106
                   11         12         13         14         15
    11  C    0.000000
    12  C    1.532251   0.000000
    13  C    2.523654   1.525834   0.000000
    14  H    4.022746   4.821523   6.287347   0.000000
    15  H    2.246382   2.601577   4.114282   2.289889   0.000000
    16  H    1.112453   2.168576   2.757693   4.468921   2.969609
    17  H    1.112467   2.168902   2.759964   4.532163   2.969382
    18  H    2.172897   1.111766   2.158659   4.809524   2.574781
    19  H    2.172645   1.111831   2.159436   4.746006   2.570818
    20  H    2.781838   2.177301   1.110894   6.649037   4.570370
    21  H    3.484064   2.167180   1.110385   6.962798   4.701187
    22  H    2.781987   2.177321   1.110888   6.603987   4.568766
    23  H    8.146390   9.288061  10.605783   4.793884   6.984659
    24  H    7.380568   8.801538   9.822933   5.536615   7.098919
    25  C    9.107485  10.454186  11.626971   6.360370   8.389866
    26  F    9.534738  10.943762  12.023707   7.169336   9.046514
    27  F    9.894392  11.152442  12.414989   6.740836   8.909019
    28  F    9.562286  10.921240  12.052906   6.939616   8.930506
    29  Cl   4.989431   6.364878   7.309291   4.205498   5.026247
    30  Cl   6.277771   7.134659   8.539133   2.720085   4.748247
    31  O    4.207025   3.884432   5.319129   3.220785   2.198439
    32  O    5.300529   5.541277   7.061807   2.200009   3.084151
    33  C    5.186767   5.049860   6.513947   3.129740   3.003864
    34  C    6.548425   6.201692   7.577648   4.557199   4.438316
    35  C    7.699877   7.540685   8.970442   4.993194   5.494821
    36  H    6.805476   6.283444   7.587826   5.133812   4.774745
    37  H    6.732455   6.280577   7.569280   5.150781   4.782985
    38  H    7.808984   7.744596   9.207894   4.804006   5.566678
    39  H    8.648928   8.367545   9.744381   6.099123   6.477995
    40  H    7.745809   7.742848   9.193157   4.822689   5.574336
                   16         17         18         19         20
    16  H    0.000000
    17  H    1.811387   0.000000
    18  H    3.090293   2.504223   0.000000
    19  H    2.505445   3.090378   1.808554   0.000000
    20  H    3.127326   2.552718   2.503112   3.089448   0.000000
    21  H    3.770745   3.772441   2.483989   2.484931   1.804699
    22  H    2.550412   3.130725   3.088883   2.503983   1.810947
    23  H    8.158597   8.495690   9.477234   9.173300  10.903102
    24  H    7.497504   7.143929   8.913934   9.197252   9.674917
    25  C    9.120521   9.147121  10.621648  10.596043  11.686392
    26  F    9.558687   9.419026  11.094100  11.210372  11.960758
    27  F   10.007838   9.969605  11.220602  11.251388  12.503258
    28  F    9.424978   9.693999  11.209447  10.975373  12.185517
    29  Cl   5.307055   4.566383   6.397420   6.943090   7.055455
    30  Cl   6.361095   6.892077   7.318335   6.817412   9.024372
    31  O    5.006749   4.836171   3.369519   3.604923   5.844037
    32  O    5.959791   5.856671   5.191739   5.302814   7.508129
    33  C    5.944801   5.780385   4.551322   4.753234   7.011906
    34  C    7.331948   7.122396   5.588947   5.848575   8.091820
    35  C    8.441024   8.248747   6.969522   7.190930   9.460819
    36  H    7.506398   7.493962   5.752420   5.763958   8.221262
    37  H    7.622772   7.177729   5.505246   6.068966   7.979389
    38  H    8.431426   8.451496   7.318029   7.289950   9.774725
    39  H    9.410449   9.193869   7.741887   7.992819  10.244332
    40  H    8.536193   8.171979   7.125221   7.534864   9.572043
                   21         22         23         24         25
    21  H    0.000000
    22  H    1.804683   0.000000
    23  H   11.428683  10.640543   0.000000
    24  H   10.818773   9.937682   4.295125   0.000000
    25  C   12.571473  11.663975   2.698893   2.760228   0.000000
    26  F   13.011090  12.069667   4.050227   2.410459   1.384346
    27  F   13.304101  12.531850   2.804478   3.726997   1.383117
    28  F   13.008429  11.971131   2.808034   3.743839   1.383086
    29  Cl   8.289451   7.555049   5.641697   2.759798   5.214021
    30  Cl   9.218580   8.623470   2.802824   5.637000   5.198217
    31  O    5.497762   5.983615   7.810911   8.495964   9.500399
    32  O    7.449262   7.586233   5.957766   7.237319   7.785423
    33  C    6.720533   7.145455   7.280126   8.350750   9.085638
    34  C    7.609048   8.274130   8.305878   9.607682  10.190948
    35  C    9.072075   9.626011   7.917098   9.616252   9.861190
    36  H    7.503663   8.229911   8.886755  10.419695  10.925878
    37  H    7.531704   8.379329   9.069399   9.973348  10.768320
    38  H    9.361406   9.754445   7.300236   9.455428   9.440701
    39  H    9.748165  10.436184   8.898111  10.661053  10.851903
    40  H    9.384544   9.881904   7.522538   8.959723   9.257500
                   26         27         28         29         30
    26  F    0.000000
    27  F    2.246312   0.000000
    28  F    2.246124   2.252345   0.000000
    29  Cl   5.156661   6.042442   6.089402   0.000000
    30  Cl   6.382886   5.404746   5.400392   5.604392   0.000000
    31  O   10.271378   9.731846  10.132980   6.604992   5.357323
    32  O    8.677815   7.820796   8.454383   5.971196   3.689516
    33  C    9.932581   9.155421   9.752366   6.767950   4.884496
    34  C   11.072202  10.103063  10.885161   8.119983   5.964366
    35  C   10.806176   9.574525  10.572758   8.516220   5.831878
    36  H   11.864423  10.871708  11.522002   8.907298   6.373922
    37  H   11.553461  10.681457  11.554875   8.314902   6.842933
    38  H   10.484910   9.139980  10.038361   8.569926   5.158214
    39  H   11.800191  10.490529  11.570134   9.570485   6.861623
    40  H   10.130680   8.912173  10.076498   7.950601   5.729938
                   31         32         33         34         35
    31  O    0.000000
    32  O    2.230028   0.000000
    33  C    1.223861   1.352327   0.000000
    34  C    2.357838   2.486818   1.504434   0.000000
    35  C    3.657662   2.799973   2.523571   1.527277   0.000000
    36  H    2.674281   3.201594   2.139588   1.111190   2.159184
    37  H    2.674586   3.201090   2.139830   1.111179   2.159549
    38  H    3.950746   2.745693   2.793461   2.178723   1.111119
    39  H    4.503251   3.902159   3.474647   2.168250   1.110384
    40  H    3.951396   2.745459   2.793995   2.178730   1.111049
                   36         37         38         39         40
    36  H    0.000000
    37  H    1.806060   0.000000
    38  H    2.504052   3.089632   0.000000
    39  H    2.483716   2.484272   1.804247   0.000000
    40  H    3.089352   2.504398   1.812685   1.804162   0.000000
 Stoichiometry    C14H16Cl2F3N2O3(1-)
 Framework group  C1[X(C14H16Cl2F3N2O3)]
 Deg. of freedom   114
 Full point group                 C1      NOp   1
 Largest Abelian subgroup         C1      NOp   1
 Largest concise Abelian subgroup C1      NOp   1
                         Standard orientation:                         
 ---------------------------------------------------------------------
 Center     Atomic      Atomic             Coordinates (Angstroms)
 Number     Number       Type             X           Y           Z
 ---------------------------------------------------------------------
      1          6           0        3.682800    0.019276    0.008609
      2          6           0        2.907164    0.892254    0.776956
      3          6           0        1.516115    0.767396    0.822181
      4          6           0        0.858143   -0.258847    0.103471
      5          6           0        1.651033   -1.134336   -0.693714
      6          6           0        3.043301   -0.986067   -0.728549
      7          7           0       -0.574236   -0.344973    0.179887
      8          6           0       -1.293321   -1.503655    0.286394
      9          7           0       -2.654779   -1.453898    0.344253
     10          8           0       -0.726157   -2.582616    0.381044
     11          6           0       -3.453423   -2.659420    0.489887
     12          6           0       -4.949468   -2.330216    0.525515
     13          6           0       -5.789669   -3.594236    0.681991
     14          1           0       -1.157954    0.634902    0.243419
     15          1           0       -3.179456   -0.440392    0.272885
     16          1           0       -3.170490   -3.173053    1.435234
     17          1           0       -3.249506   -3.339209   -0.366785
     18          1           0       -5.240040   -1.820593   -0.418876
     19          1           0       -5.159320   -1.650312    1.379834
     20          1           0       -5.613146   -4.283327   -0.171283
     21          1           0       -6.866629   -3.324775    0.704443
     22          1           0       -5.533143   -4.113571    1.629913
     23          1           0        3.389016    1.677505    1.347668
     24          1           0        3.623698   -1.657096   -1.349267
     25          6           0        5.181586    0.191231   -0.016775
     26          9           0        5.794621   -0.748875   -0.827209
     27          9           0        5.492501    1.451855   -0.493399
     28          9           0        5.681658    0.058199    1.265861
     29         17           0        0.990597   -2.374199   -1.760391
     30         17           0        0.639517    1.904522    1.842177
     31          8           0       -4.237550    1.394677   -0.315411
     32          8           0       -2.265375    2.434184   -0.369969
     33          6           0       -3.610705    2.428170   -0.507229
     34          6           0       -4.354255    3.677109   -0.895312
     35          6           0       -3.428727    4.875257   -1.096347
     36          1           0       -5.087727    3.920791   -0.096951
     37          1           0       -4.906283    3.487365   -1.840818
     38          1           0       -2.880386    5.101611   -0.156841
     39          1           0       -4.029009    5.765383   -1.379698
     40          1           0       -2.698266    4.667304   -1.907281
 ---------------------------------------------------------------------
 Rotational constants (GHZ):      0.2412526      0.0978145      0.0774939
 General basis read from cards:  (6D, 7F)
 There are   496 symmetry adapted cartesian basis functions of A   symmetry.
 There are   496 symmetry adapted basis functions of A   symmetry.
   496 basis functions,   880 primitive gaussians,   496 cartesian basis functions
   100 alpha electrons      100 beta electrons
       nuclear repulsion energy      2384.7388069447 Hartrees.
 NAtoms=   40 NActive=   40 NUniq=   40 SFac= 1.00D+00 NAtFMM=   60 NAOKFM=F Big=F
 Integral buffers will be    131072 words long.
 Raffenetti 2 integral format.
 Two-electron integral symmetry is turned on.
 One-electron integrals computed using PRISM.
 NBasis=   496 RedAO= T EigKep=  1.30D-06  NBF=   496
 NBsUse=   494 1.00D-06 EigRej=  7.90D-07 NBFU=   494
 ExpMin= 4.38D-02 ExpMax= 2.52D+04 ExpMxC= 3.78D+03 IAcc=3 IRadAn=         5 AccDes= 0.00D+00
 Harris functional with IExCor= 1009 and IRadAn=       5 diagonalized for initial guess.
 HarFok:  IExCor= 1009 AccDes= 0.00D+00 IRadAn=         5 IDoV= 1 UseB2=F ITyADJ=14
 ICtDFT=  3500011 ScaDFX=  1.000000  1.000000  1.000000  1.000000
 FoFCou: FMM=F IPFlag=           0 FMFlag=      100000 FMFlg1=           0
         NFxFlg=           0 DoJE=T BraDBF=F KetDBF=T FulRan=T
         wScrn=  0.000000 ICntrl=     500 IOpCl=  0 I1Cent=   200000004 NGrid=           0
         NMat0=    1 NMatS0=      1 NMatT0=    0 NMatD0=    1 NMtDS0=    0 NMtDT0=    0
 Petite list used in FoFCou.
 Requested convergence on RMS density matrix=1.00D-08 within 128 cycles.
 Requested convergence on MAX density matrix=1.00D-06.
 Requested convergence on             energy=1.00D-06.
 No special actions if energy rises.
 SCF Done:  E(RM062X) =  -2097.83254695     A.U. after   17 cycles
            NFock= 17  Conv=0.20D-08     -V/T= 2.0064

 **********************************************************************

            Population analysis using the SCF density.

 **********************************************************************

 Orbital symmetries:
       Occupied  (A) (A) (A) (A) (A) (A) (A) (A) (A) (A) (A) (A)
                 (A) (A) (A) (A) (A) (A) (A) (A) (A) (A) (A) (A)
                 (A) (A) (A) (A) (A) (A) (A) (A) (A) (A) (A) (A)
                 (A) (A) (A) (A) (A) (A) (A) (A) (A) (A) (A) (A)
                 (A) (A) (A) (A) (A) (A) (A) (A) (A) (A) (A) (A)
                 (A) (A) (A) (A) (A) (A) (A) (A) (A) (A) (A) (A)
                 (A) (A) (A) (A) (A) (A) (A) (A) (A) (A) (A) (A)
                 (A) (A) (A) (A) (A) (A) (A) (A) (A) (A) (A) (A)
                 (A) (A) (A) (A)
       Virtual   (A) (A) (A) (A) (A) (A) (A) (A) (A) (A) (A) (A)
                 (A) (A) (A) (A) (A) (A) (A) (A) (A) (A) (A) (A)
                 (A) (A) (A) (A) (A) (A) (A) (A) (A) (A) (A) (A)
                 (A) (A) (A) (A) (A) (A) (A) (A) (A) (A) (A) (A)
                 (A) (A) (A) (A) (A) (A) (A) (A) (A) (A) (A) (A)
                 (A) (A) (A) (A) (A) (A) (A) (A) (A) (A) (A) (A)
                 (A) (A) (A) (A) (A) (A) (A) (A) (A) (A) (A) (A)
                 (A) (A) (A) (A) (A) (A) (A) (A) (A) (A) (A) (A)
                 (A) (A) (A) (A) (A) (A) (A) (A) (A) (A) (A) (A)
                 (A) (A) (A) (A) (A) (A) (A) (A) (A) (A) (A) (A)
                 (A) (A) (A) (A) (A) (A) (A) (A) (A) (A) (A) (A)
                 (A) (A) (A) (A) (A) (A) (A) (A) (A) (A) (A) (A)
                 (A) (A) (A) (A) (A) (A) (A) (A) (A) (A) (A) (A)
                 (A) (A) (A) (A) (A) (A) (A) (A) (A) (A) (A) (A)
                 (A) (A) (A) (A) (A) (A) (A) (A) (A) (A) (A) (A)
                 (A) (A) (A) (A) (A) (A) (A) (A) (A) (A) (A) (A)
                 (A) (A) (A) (A) (A) (A) (A) (A) (A) (A) (A) (A)
                 (A) (A) (A) (A) (A) (A) (A) (A) (A) (A) (A) (A)
                 (A) (A) (A) (A) (A) (A) (A) (A) (A) (A) (A) (A)
                 (A) (A) (A) (A) (A) (A) (A) (A) (A) (A) (A) (A)
                 (A) (A) (A) (A) (A) (A) (A) (A) (A) (A) (A) (A)
                 (A) (A) (A) (A) (A) (A) (A) (A) (A) (A) (A) (A)
                 (A) (A) (A) (A) (A) (A) (A) (A) (A) (A) (A) (A)
                 (A) (A) (A) (A) (A) (A) (A) (A) (A) (A) (A) (A)
                 (A) (A) (A) (A) (A) (A) (A) (A) (A) (A) (A) (A)
                 (A) (A) (A) (A) (A) (A) (A) (A) (A) (A) (A) (A)
                 (A) (A) (A) (A) (A) (A) (A) (A) (A) (A) (A) (A)
                 (A) (A) (A) (A) (A) (A) (A) (A) (A) (A) (A) (A)
                 (A) (A) (A) (A) (A) (A) (A) (A) (A) (A) (A) (A)
                 (A) (A) (A) (A) (A) (A) (A) (A) (A) (A) (A) (A)
                 (A) (A) (A) (A) (A) (A) (A) (A) (A) (A) (A) (A)
                 (A) (A) (A) (A) (A) (A) (A) (A) (A) (A) (A) (A)
                 (A) (A) (A) (A) (A) (A) (A) (A) (A) (A)
 The electronic state is 1-A.
 Alpha  occ. eigenvalues -- -102.59075-102.58322 -25.23994 -25.23582 -25.23538
 Alpha  occ. eigenvalues --  -19.48553 -19.45034 -19.43200 -14.69562 -14.66797
 Alpha  occ. eigenvalues --  -10.75441 -10.56412 -10.55092 -10.54991 -10.54967
 Alpha  occ. eigenvalues --  -10.51406 -10.50502 -10.50424 -10.49537 -10.48246
 Alpha  occ. eigenvalues --  -10.46273 -10.45675 -10.42663 -10.42339  -9.73617
 Alpha  occ. eigenvalues --   -9.72852  -7.46043  -7.45344  -7.45328  -7.45285
 Alpha  occ. eigenvalues --   -7.44589  -7.44545  -1.37666  -1.30005  -1.29795
 Alpha  occ. eigenvalues --   -1.06092  -1.00399  -0.95052  -0.90896  -0.89251
 Alpha  occ. eigenvalues --   -0.88499  -0.87391  -0.85471  -0.79372  -0.78245
 Alpha  occ. eigenvalues --   -0.75332  -0.74150  -0.73269  -0.68000  -0.64382
 Alpha  occ. eigenvalues --   -0.62860  -0.61244  -0.60209  -0.59893  -0.58368
 Alpha  occ. eigenvalues --   -0.56715  -0.55120  -0.51522  -0.50285  -0.50012
 Alpha  occ. eigenvalues --   -0.49307  -0.47441  -0.46548  -0.45959  -0.45587
 Alpha  occ. eigenvalues --   -0.45069  -0.44749  -0.44638  -0.44258  -0.42124
 Alpha  occ. eigenvalues --   -0.41726  -0.41280  -0.40648  -0.40115  -0.38701
 Alpha  occ. eigenvalues --   -0.38193  -0.37596  -0.36643  -0.35922  -0.35465
 Alpha  occ. eigenvalues --   -0.34844  -0.33990  -0.33135  -0.31854  -0.31346
 Alpha  occ. eigenvalues --   -0.30729  -0.30514  -0.30422  -0.29682  -0.28800
 Alpha  occ. eigenvalues --   -0.28668  -0.27234  -0.26235  -0.22420  -0.22066
 Alpha  occ. eigenvalues --   -0.20130  -0.18471  -0.17526  -0.15792  -0.14961
 Alpha virt. eigenvalues --    0.07434   0.07999   0.09037   0.10110   0.10363
 Alpha virt. eigenvalues --    0.10734   0.11978   0.11997   0.12189   0.12379
 Alpha virt. eigenvalues --    0.12540   0.13135   0.13802   0.14111   0.14531
 Alpha virt. eigenvalues --    0.15208   0.15530   0.15641   0.16140   0.16291
 Alpha virt. eigenvalues --    0.16886   0.17113   0.17387   0.17675   0.18122
 Alpha virt. eigenvalues --    0.18440   0.18880   0.18984   0.19630   0.19713
 Alpha virt. eigenvalues --    0.20081   0.20586   0.20637   0.20913   0.21290
 Alpha virt. eigenvalues --    0.21708   0.22064   0.22324   0.22671   0.23270
 Alpha virt. eigenvalues --    0.23673   0.23914   0.24253   0.24824   0.24908
 Alpha virt. eigenvalues --    0.25353   0.25614   0.26222   0.26493   0.26674
 Alpha virt. eigenvalues --    0.26810   0.27221   0.27766   0.28112   0.28387
 Alpha virt. eigenvalues --    0.28942   0.29588   0.29906   0.30316   0.30987
 Alpha virt. eigenvalues --    0.31154   0.31643   0.31769   0.31961   0.32478
 Alpha virt. eigenvalues --    0.32989   0.33322   0.33594   0.33826   0.34303
 Alpha virt. eigenvalues --    0.34590   0.35068   0.35146   0.35542   0.35940
 Alpha virt. eigenvalues --    0.36256   0.36272   0.36409   0.36923   0.37397
 Alpha virt. eigenvalues --    0.37854   0.37973   0.38565   0.38969   0.39535
 Alpha virt. eigenvalues --    0.39765   0.40000   0.40311   0.40432   0.40862
 Alpha virt. eigenvalues --    0.41232   0.41413   0.41953   0.42527   0.42761
 Alpha virt. eigenvalues --    0.43044   0.43366   0.43836   0.44275   0.44539
 Alpha virt. eigenvalues --    0.44856   0.45192   0.45607   0.46024   0.46476
 Alpha virt. eigenvalues --    0.46694   0.46799   0.47275   0.47714   0.48385
 Alpha virt. eigenvalues --    0.48890   0.48981   0.49516   0.50146   0.50469
 Alpha virt. eigenvalues --    0.50665   0.51578   0.51777   0.52756   0.53376
 Alpha virt. eigenvalues --    0.53680   0.54531   0.54922   0.56310   0.56364
 Alpha virt. eigenvalues --    0.57201   0.57984   0.59353   0.60190   0.61000
 Alpha virt. eigenvalues --    0.62337   0.63323   0.64047   0.65358   0.66816
 Alpha virt. eigenvalues --    0.67851   0.69615   0.71406   0.71640   0.75362
 Alpha virt. eigenvalues --    0.76571   0.77313   0.78546   0.78890   0.79895
 Alpha virt. eigenvalues --    0.80605   0.81681   0.82139   0.82211   0.82989
 Alpha virt. eigenvalues --    0.83151   0.83951   0.84522   0.85342   0.85523
 Alpha virt. eigenvalues --    0.86318   0.87148   0.87697   0.88395   0.88976
 Alpha virt. eigenvalues --    0.89044   0.90120   0.90365   0.91766   0.92057
 Alpha virt. eigenvalues --    0.92794   0.92920   0.93945   0.95608   0.96594
 Alpha virt. eigenvalues --    0.97353   0.98112   0.98376   0.99101   0.99577
 Alpha virt. eigenvalues --    1.00955   1.02309   1.03464   1.04744   1.05129
 Alpha virt. eigenvalues --    1.05827   1.06549   1.07728   1.07877   1.08106
 Alpha virt. eigenvalues --    1.08489   1.09376   1.09488   1.10468   1.10866
 Alpha virt. eigenvalues --    1.11129   1.12442   1.13293   1.14703   1.14947
 Alpha virt. eigenvalues --    1.16376   1.18244   1.18496   1.18911   1.20430
 Alpha virt. eigenvalues --    1.20833   1.21970   1.22822   1.24006   1.24129
 Alpha virt. eigenvalues --    1.25219   1.25752   1.26460   1.27736   1.28270
 Alpha virt. eigenvalues --    1.28856   1.29213   1.29966   1.30834   1.31474
 Alpha virt. eigenvalues --    1.32960   1.33598   1.35075   1.35804   1.36760
 Alpha virt. eigenvalues --    1.38452   1.38741   1.40559   1.43051   1.45344
 Alpha virt. eigenvalues --    1.47616   1.47849   1.49902   1.51329   1.51721
 Alpha virt. eigenvalues --    1.53131   1.53729   1.53890   1.55998   1.57067
 Alpha virt. eigenvalues --    1.57985   1.58726   1.59166   1.59390   1.60019
 Alpha virt. eigenvalues --    1.60557   1.61114   1.62335   1.63678   1.65691
 Alpha virt. eigenvalues --    1.66806   1.68368   1.69051   1.69378   1.70182
 Alpha virt. eigenvalues --    1.70822   1.71945   1.73062   1.73511   1.75284
 Alpha virt. eigenvalues --    1.76111   1.78088   1.80058   1.80934   1.81190
 Alpha virt. eigenvalues --    1.81472   1.81826   1.82182   1.82686   1.84755
 Alpha virt. eigenvalues --    1.86091   1.86285   1.87379   1.89668   1.92060
 Alpha virt. eigenvalues --    1.92628   1.93836   1.94826   1.95307   1.96776
 Alpha virt. eigenvalues --    1.97079   1.98063   1.98275   1.98443   1.98631
 Alpha virt. eigenvalues --    1.99327   2.00607   2.02068   2.02613   2.03462
 Alpha virt. eigenvalues --    2.05124   2.07186   2.07825   2.08038   2.08896
 Alpha virt. eigenvalues --    2.09858   2.10645   2.10726   2.11196   2.11777
 Alpha virt. eigenvalues --    2.11803   2.13259   2.13681   2.14575   2.15360
 Alpha virt. eigenvalues --    2.16002   2.16364   2.17593   2.17705   2.19129
 Alpha virt. eigenvalues --    2.20590   2.22030   2.23470   2.23863   2.24564
 Alpha virt. eigenvalues --    2.25032   2.26236   2.27208   2.28693   2.29713
 Alpha virt. eigenvalues --    2.30340   2.31098   2.32458   2.35823   2.36606
 Alpha virt. eigenvalues --    2.38265   2.38608   2.40685   2.41839   2.44836
 Alpha virt. eigenvalues --    2.44933   2.45280   2.46754   2.47380   2.48982
 Alpha virt. eigenvalues --    2.49491   2.50694   2.52605   2.54468   2.56939
 Alpha virt. eigenvalues --    2.60269   2.66616   2.68569   2.69274   2.69605
 Alpha virt. eigenvalues --    2.70606   2.74142   2.74514   2.75434   2.76430
 Alpha virt. eigenvalues --    2.78646   2.83673   2.84279   2.84899   2.86451
 Alpha virt. eigenvalues --    2.87008   2.87100   2.89622   2.90709   2.94716
 Alpha virt. eigenvalues --    2.99736   3.02434   3.04729   3.07274   3.17430
 Alpha virt. eigenvalues --    3.19541   3.21147   3.22790   3.31332   3.32725
 Alpha virt. eigenvalues --    3.34460   3.35018   3.36922   3.40107   3.45314
 Alpha virt. eigenvalues --    4.30771   4.34273   4.34836   4.37776   4.39179
 Alpha virt. eigenvalues --    4.44619   4.45096   4.46838   4.48494   4.51961
 Alpha virt. eigenvalues --    4.54252   4.57464   4.58873   4.58932   4.60265
 Alpha virt. eigenvalues --    4.65627   4.70879   4.73957   4.82618   4.84518
 Alpha virt. eigenvalues --    4.88386   5.55262   6.04655   6.91534
          Condensed to atoms (all electrons):
               1          2          3          4          5          6
     1  C   14.933172  -2.098541  -0.610280   0.365800  -0.893910  -2.209110
     2  C   -2.098541  22.885897  -5.006855  -3.711076   3.877503 -10.471878
     3  C   -0.610280  -5.006855  11.882403  -1.967183  -3.233462   5.271441
     4  C    0.365800  -3.711076  -1.967183  21.431109  -0.252237  -5.418976
     5  C   -0.893910   3.877503  -3.233462  -0.252237  12.218583  -4.997330
     6  C   -2.209110 -10.471878   5.271441  -5.418976  -4.997330  23.370342
     7  N   -0.058071   0.050290   0.096899   0.005661  -0.073288  -0.003778
     8  C   -0.379146   0.038333  -0.375633  -1.001793  -0.263492  -0.087012
     9  N   -0.008796   0.039989   0.054125  -0.479429   0.066553   0.044799
    10  O   -0.024821   0.036759  -0.044829  -0.066951   0.071632  -0.037170
    11  C   -0.030869   0.008647  -0.033753  -0.667903  -0.062332   0.015890
    12  C    0.000180  -0.001458  -0.001319   0.010806  -0.004599   0.000425
    13  C   -0.000155   0.000193  -0.000190  -0.011309  -0.000378  -0.000202
    14  H   -0.001990   0.015827   0.006863  -0.077639   0.028899   0.006698
    15  H    0.000109  -0.000099   0.002238   0.017905  -0.000206  -0.000065
    16  H    0.000000  -0.000102  -0.002597   0.002495  -0.002078  -0.000625
    17  H   -0.000026   0.000060   0.002053  -0.002727   0.002138   0.001264
    18  H   -0.000001  -0.000003  -0.000108  -0.000421   0.000006   0.000010
    19  H   -0.000002   0.000003   0.000041  -0.000235  -0.000154  -0.000006
    20  H   -0.000000   0.000000   0.000005   0.000016  -0.000018  -0.000001
    21  H   -0.000000  -0.000000   0.000000  -0.000019   0.000001   0.000000
    22  H    0.000000  -0.000000  -0.000008   0.000026  -0.000004  -0.000000
    23  H    0.234148  -0.040089   0.021777  -0.018612  -0.043986   0.147774
    24  H    0.052390   0.021776  -0.023067   0.028128  -0.032940   0.263493
    25  C   -1.948045   0.187991  -0.086702  -1.263203  -0.111229  -0.121737
    26  F   -0.040119  -0.016984  -0.003856   0.030779   0.071297  -0.001582
    27  F    0.185877  -0.190089   0.010591   0.025139  -0.006888  -0.018906
    28  F    0.192525  -0.223105   0.015733   0.032657  -0.008153   0.010450
    29  Cl  -0.031835   0.007434   0.072957  -0.357917  -0.236738   0.307490
    30  Cl   0.059950  -0.026860  -0.144671  -0.165619  -0.118962   0.066546
    31  O   -0.000284  -0.000271   0.003831  -0.013016   0.002625  -0.000077
    32  O   -0.000733   0.009430  -0.025762   0.069526  -0.005553  -0.005169
    33  C   -0.001481   0.005863   0.001877  -0.039228   0.011813  -0.002028
    34  C   -0.001117  -0.000979  -0.020577   0.024645  -0.001417  -0.003591
    35  C    0.000390   0.001309   0.002564  -0.004563   0.001293   0.000774
    36  H   -0.000000   0.000003   0.000035  -0.000091   0.000012   0.000000
    37  H   -0.000001  -0.000003   0.000038  -0.000046   0.000029   0.000003
    38  H   -0.000017   0.000121  -0.000278  -0.000183   0.000058   0.000006
    39  H    0.000000  -0.000007   0.000031  -0.000022  -0.000004  -0.000000
    40  H   -0.000004   0.000070  -0.000153  -0.000089   0.000022  -0.000002
               7          8          9         10         11         12
     1  C   -0.058071  -0.379146  -0.008796  -0.024821  -0.030869   0.000180
     2  C    0.050290   0.038333   0.039989   0.036759   0.008647  -0.001458
     3  C    0.096899  -0.375633   0.054125  -0.044829  -0.033753  -0.001319
     4  C    0.005661  -1.001793  -0.479429  -0.066951  -0.667903   0.010806
     5  C   -0.073288  -0.263492   0.066553   0.071632  -0.062332  -0.004599
     6  C   -0.003778  -0.087012   0.044799  -0.037170   0.015890   0.000425
     7  N    7.855574   0.239415  -0.401605  -0.209917  -0.144943  -0.006077
     8  C    0.239415   7.365282   0.277943   0.780803  -0.838150   0.093064
     9  N   -0.401605   0.277943   7.753332  -0.163149   0.424699  -0.056317
    10  O   -0.209917   0.780803  -0.163149   8.437756  -0.116699   0.016597
    11  C   -0.144943  -0.838150   0.424699  -0.116699   7.163770  -0.348851
    12  C   -0.006077   0.093064  -0.056317   0.016597  -0.348851   6.278573
    13  C    0.000291  -0.054138  -0.000328  -0.001508  -0.009098  -0.158855
    14  H    0.158043  -0.011957   0.036696   0.004197   0.012605  -0.000310
    15  H    0.033917   0.034650   0.188105   0.004102  -0.068147  -0.007469
    16  H    0.002424  -0.016412  -0.058862   0.000849   0.436809  -0.052624
    17  H   -0.000783  -0.009359  -0.062138   0.001102   0.443194  -0.059121
    18  H   -0.000040  -0.002709   0.005143  -0.000118  -0.080037   0.427420
    19  H   -0.000534  -0.006311   0.003514  -0.000195  -0.061308   0.423571
    20  H    0.000023   0.000154   0.000017  -0.000042  -0.007445  -0.060358
    21  H    0.000010  -0.000979   0.000306   0.000005   0.030626  -0.130894
    22  H    0.000007   0.000797  -0.000140  -0.000030  -0.010526  -0.069941
    23  H    0.000245   0.000995  -0.000004  -0.000009   0.000004   0.000000
    24  H   -0.000184   0.001162  -0.000015  -0.000083   0.000014  -0.000000
    25  C    0.001557  -0.144129   0.000902  -0.003954  -0.004222   0.000020
    26  F   -0.000029   0.000142  -0.000001  -0.000008  -0.000002   0.000000
    27  F   -0.000041  -0.000507  -0.000000   0.000002  -0.000004   0.000000
    28  F    0.000012   0.000539  -0.000000  -0.000004   0.000004  -0.000000
    29  Cl   0.046238  -0.025741   0.006468  -0.111409   0.023645  -0.000495
    30  Cl   0.020858   0.086396   0.001389   0.001435   0.010420   0.000124
    31  O    0.013141   0.026149  -0.026059  -0.000017  -0.032779   0.019604
    32  O   -0.043007  -0.030495   0.009596  -0.000534   0.010576  -0.003741
    33  C    0.002735   0.002953  -0.004538   0.000112   0.002671  -0.000093
    34  C   -0.019410  -0.018260  -0.008982  -0.000523   0.014899  -0.005282
    35  C    0.001982  -0.001157   0.001843   0.000044  -0.002354   0.000185
    36  H    0.000023  -0.000082  -0.000020  -0.000000   0.000025   0.000035
    37  H   -0.000017  -0.000001  -0.000050  -0.000000  -0.000016   0.000048
    38  H   -0.000071  -0.000019  -0.000002  -0.000000  -0.000002   0.000008
    39  H    0.000010   0.000024  -0.000002   0.000000  -0.000004   0.000003
    40  H   -0.000018   0.000011   0.000002  -0.000000   0.000003   0.000010
              13         14         15         16         17         18
     1  C   -0.000155  -0.001990   0.000109   0.000000  -0.000026  -0.000001
     2  C    0.000193   0.015827  -0.000099  -0.000102   0.000060  -0.000003
     3  C   -0.000190   0.006863   0.002238  -0.002597   0.002053  -0.000108
     4  C   -0.011309  -0.077639   0.017905   0.002495  -0.002727  -0.000421
     5  C   -0.000378   0.028899  -0.000206  -0.002078   0.002138   0.000006
     6  C   -0.000202   0.006698  -0.000065  -0.000625   0.001264   0.000010
     7  N    0.000291   0.158043   0.033917   0.002424  -0.000783  -0.000040
     8  C   -0.054138  -0.011957   0.034650  -0.016412  -0.009359  -0.002709
     9  N   -0.000328   0.036696   0.188105  -0.058862  -0.062138   0.005143
    10  O   -0.001508   0.004197   0.004102   0.000849   0.001102  -0.000118
    11  C   -0.009098   0.012605  -0.068147   0.436809   0.443194  -0.080037
    12  C   -0.158855  -0.000310  -0.007469  -0.052624  -0.059121   0.427420
    13  C    5.807536   0.000081  -0.000522  -0.006039  -0.012289  -0.032483
    14  H    0.000081   0.251569   0.004066   0.000005   0.000003   0.000002
    15  H   -0.000522   0.004066   0.261354   0.001856   0.001689   0.000714
    16  H   -0.006039   0.000005   0.001856   0.531161  -0.042628   0.003947
    17  H   -0.012289   0.000003   0.001689  -0.042628   0.527596  -0.005242
    18  H   -0.032483   0.000002   0.000714   0.003947  -0.005242   0.476712
    19  H   -0.047219   0.000003   0.000500  -0.005641   0.004053  -0.027057
    20  H    0.411585   0.000000  -0.000001  -0.000405   0.002918  -0.004543
    21  H    0.451159  -0.000000  -0.000000  -0.000072  -0.000066  -0.003284
    22  H    0.423453  -0.000000  -0.000000   0.003124  -0.000327   0.003883
    23  H    0.000000  -0.000003   0.000000  -0.000000   0.000000  -0.000000
    24  H   -0.000000   0.000001  -0.000000   0.000000  -0.000000   0.000000
    25  C   -0.000013  -0.000070  -0.000006  -0.000003   0.000002  -0.000000
    26  F   -0.000000  -0.000000   0.000000  -0.000000   0.000000  -0.000000
    27  F   -0.000000  -0.000000  -0.000000   0.000000  -0.000000   0.000000
    28  F    0.000000   0.000000  -0.000000  -0.000000   0.000000  -0.000000
    29  Cl   0.000424   0.000046   0.000094   0.000422   0.000114   0.000043
    30  Cl  -0.000049   0.013257  -0.000105   0.000068  -0.000027   0.000002
    31  O    0.005865  -0.001944   0.034675  -0.000057  -0.000049  -0.001766
    32  O   -0.000291   0.048571   0.002546  -0.000002  -0.000003  -0.000015
    33  C   -0.002220  -0.003591  -0.003727   0.000157   0.000370  -0.000333
    34  C    0.000330   0.009616   0.004572   0.000004   0.000038   0.000058
    35  C   -0.000198  -0.000878  -0.000796   0.000002  -0.000002  -0.000002
    36  H    0.000011  -0.000005  -0.000003  -0.000000   0.000000  -0.000000
    37  H    0.000005  -0.000003  -0.000001  -0.000000  -0.000000  -0.000000
    38  H    0.000000   0.000000   0.000000   0.000000  -0.000000  -0.000000
    39  H    0.000000  -0.000000   0.000000  -0.000000  -0.000000  -0.000000
    40  H    0.000001  -0.000001  -0.000000  -0.000000   0.000000   0.000000
              19         20         21         22         23         24
     1  C   -0.000002  -0.000000  -0.000000   0.000000   0.234148   0.052390
     2  C    0.000003   0.000000  -0.000000  -0.000000  -0.040089   0.021776
     3  C    0.000041   0.000005   0.000000  -0.000008   0.021777  -0.023067
     4  C   -0.000235   0.000016  -0.000019   0.000026  -0.018612   0.028128
     5  C   -0.000154  -0.000018   0.000001  -0.000004  -0.043986  -0.032940
     6  C   -0.000006  -0.000001   0.000000  -0.000000   0.147774   0.263493
     7  N   -0.000534   0.000023   0.000010   0.000007   0.000245  -0.000184
     8  C   -0.006311   0.000154  -0.000979   0.000797   0.000995   0.001162
     9  N    0.003514   0.000017   0.000306  -0.000140  -0.000004  -0.000015
    10  O   -0.000195  -0.000042   0.000005  -0.000030  -0.000009  -0.000083
    11  C   -0.061308  -0.007445   0.030626  -0.010526   0.000004   0.000014
    12  C    0.423571  -0.060358  -0.130894  -0.069941   0.000000  -0.000000
    13  C   -0.047219   0.411585   0.451159   0.423453   0.000000  -0.000000
    14  H    0.000003   0.000000  -0.000000  -0.000000  -0.000003   0.000001
    15  H    0.000500  -0.000001  -0.000000  -0.000000   0.000000  -0.000000
    16  H   -0.005641  -0.000405  -0.000072   0.003124  -0.000000   0.000000
    17  H    0.004053   0.002918  -0.000066  -0.000327   0.000000  -0.000000
    18  H   -0.027057  -0.004543  -0.003284   0.003883  -0.000000   0.000000
    19  H    0.497069   0.004021  -0.003321  -0.004739   0.000000  -0.000000
    20  H    0.004021   0.511816  -0.025991  -0.030537  -0.000000  -0.000000
    21  H   -0.003321  -0.025991   0.510688  -0.026455  -0.000000  -0.000000
    22  H   -0.004739  -0.030537  -0.026455   0.513774   0.000000   0.000000
    23  H    0.000000  -0.000000  -0.000000   0.000000   0.462240  -0.000130
    24  H   -0.000000  -0.000000  -0.000000   0.000000  -0.000130   0.455298
    25  C   -0.000000   0.000000  -0.000000   0.000000   0.003796  -0.007463
    26  F   -0.000000   0.000000  -0.000000  -0.000000   0.000320   0.007350
    27  F   -0.000000   0.000000  -0.000000   0.000000   0.000256  -0.000008
    28  F   -0.000000   0.000000  -0.000000   0.000000   0.000285  -0.000085
    29  Cl   0.000010   0.000008   0.000001  -0.000001   0.000463  -0.008319
    30  Cl   0.000007   0.000000   0.000000   0.000000  -0.007772   0.000402
    31  O   -0.000655   0.000001  -0.000015  -0.000009   0.000000  -0.000000
    32  O    0.000014   0.000000  -0.000000   0.000000   0.000000  -0.000000
    33  C    0.000371   0.000009  -0.000061  -0.000016  -0.000005   0.000001
    34  C   -0.000040  -0.000005   0.000020  -0.000004  -0.000002   0.000000
    35  C   -0.000007   0.000000   0.000000   0.000000   0.000001  -0.000000
    36  H    0.000000   0.000000  -0.000000  -0.000000   0.000000   0.000000
    37  H   -0.000000   0.000000  -0.000000  -0.000000   0.000000   0.000000
    38  H   -0.000000  -0.000000  -0.000000  -0.000000  -0.000000   0.000000
    39  H   -0.000000  -0.000000   0.000000  -0.000000   0.000000   0.000000
    40  H   -0.000000  -0.000000  -0.000000  -0.000000  -0.000000   0.000000
              25         26         27         28         29         30
     1  C   -1.948045  -0.040119   0.185877   0.192525  -0.031835   0.059950
     2  C    0.187991  -0.016984  -0.190089  -0.223105   0.007434  -0.026860
     3  C   -0.086702  -0.003856   0.010591   0.015733   0.072957  -0.144671
     4  C   -1.263203   0.030779   0.025139   0.032657  -0.357917  -0.165619
     5  C   -0.111229   0.071297  -0.006888  -0.008153  -0.236738  -0.118962
     6  C   -0.121737  -0.001582  -0.018906   0.010450   0.307490   0.066546
     7  N    0.001557  -0.000029  -0.000041   0.000012   0.046238   0.020858
     8  C   -0.144129   0.000142  -0.000507   0.000539  -0.025741   0.086396
     9  N    0.000902  -0.000001  -0.000000  -0.000000   0.006468   0.001389
    10  O   -0.003954  -0.000008   0.000002  -0.000004  -0.111409   0.001435
    11  C   -0.004222  -0.000002  -0.000004   0.000004   0.023645   0.010420
    12  C    0.000020   0.000000   0.000000  -0.000000  -0.000495   0.000124
    13  C   -0.000013  -0.000000  -0.000000   0.000000   0.000424  -0.000049
    14  H   -0.000070  -0.000000  -0.000000   0.000000   0.000046   0.013257
    15  H   -0.000006   0.000000  -0.000000  -0.000000   0.000094  -0.000105
    16  H   -0.000003  -0.000000   0.000000  -0.000000   0.000422   0.000068
    17  H    0.000002   0.000000  -0.000000   0.000000   0.000114  -0.000027
    18  H   -0.000000  -0.000000   0.000000  -0.000000   0.000043   0.000002
    19  H   -0.000000  -0.000000  -0.000000  -0.000000   0.000010   0.000007
    20  H    0.000000   0.000000   0.000000   0.000000   0.000008   0.000000
    21  H   -0.000000  -0.000000  -0.000000  -0.000000   0.000001   0.000000
    22  H    0.000000  -0.000000   0.000000   0.000000  -0.000001   0.000000
    23  H    0.003796   0.000320   0.000256   0.000285   0.000463  -0.007772
    24  H   -0.007463   0.007350  -0.000008  -0.000085  -0.008319   0.000402
    25  C    7.702550   0.074128   0.122277   0.107630   0.022572  -0.036024
    26  F    0.074128   9.290983  -0.037765  -0.037577  -0.000679  -0.000061
    27  F    0.122277  -0.037765   9.229980  -0.051381  -0.000140  -0.000511
    28  F    0.107630  -0.037577  -0.051381   9.229182  -0.000242  -0.000038
    29  Cl   0.022572  -0.000679  -0.000140  -0.000242  17.035476  -0.005820
    30  Cl  -0.036024  -0.000061  -0.000511  -0.000038  -0.005820  16.986198
    31  O   -0.000029  -0.000000  -0.000000  -0.000000   0.000049  -0.003279
    32  O   -0.000395   0.000000  -0.000000  -0.000000   0.000920  -0.013653
    33  C   -0.000014  -0.000000   0.000000   0.000000   0.000487  -0.002408
    34  C   -0.000132  -0.000000  -0.000000   0.000000   0.000535  -0.000563
    35  C    0.000133   0.000000   0.000000   0.000000  -0.000043   0.003061
    36  H   -0.000000  -0.000000  -0.000000  -0.000000   0.000000   0.000010
    37  H    0.000000   0.000000   0.000000   0.000000  -0.000001  -0.000026
    38  H    0.000000  -0.000000  -0.000000   0.000000  -0.000001   0.000101
    39  H   -0.000000   0.000000  -0.000000  -0.000000  -0.000000  -0.000015
    40  H   -0.000000  -0.000000   0.000000   0.000000   0.000002   0.000049
              31         32         33         34         35         36
     1  C   -0.000284  -0.000733  -0.001481  -0.001117   0.000390  -0.000000
     2  C   -0.000271   0.009430   0.005863  -0.000979   0.001309   0.000003
     3  C    0.003831  -0.025762   0.001877  -0.020577   0.002564   0.000035
     4  C   -0.013016   0.069526  -0.039228   0.024645  -0.004563  -0.000091
     5  C    0.002625  -0.005553   0.011813  -0.001417   0.001293   0.000012
     6  C   -0.000077  -0.005169  -0.002028  -0.003591   0.000774   0.000000
     7  N    0.013141  -0.043007   0.002735  -0.019410   0.001982   0.000023
     8  C    0.026149  -0.030495   0.002953  -0.018260  -0.001157  -0.000082
     9  N   -0.026059   0.009596  -0.004538  -0.008982   0.001843  -0.000020
    10  O   -0.000017  -0.000534   0.000112  -0.000523   0.000044  -0.000000
    11  C   -0.032779   0.010576   0.002671   0.014899  -0.002354   0.000025
    12  C    0.019604  -0.003741  -0.000093  -0.005282   0.000185   0.000035
    13  C    0.005865  -0.000291  -0.002220   0.000330  -0.000198   0.000011
    14  H   -0.001944   0.048571  -0.003591   0.009616  -0.000878  -0.000005
    15  H    0.034675   0.002546  -0.003727   0.004572  -0.000796  -0.000003
    16  H   -0.000057  -0.000002   0.000157   0.000004   0.000002  -0.000000
    17  H   -0.000049  -0.000003   0.000370   0.000038  -0.000002   0.000000
    18  H   -0.001766  -0.000015  -0.000333   0.000058  -0.000002  -0.000000
    19  H   -0.000655   0.000014   0.000371  -0.000040  -0.000007   0.000000
    20  H    0.000001   0.000000   0.000009  -0.000005   0.000000   0.000000
    21  H   -0.000015  -0.000000  -0.000061   0.000020   0.000000  -0.000000
    22  H   -0.000009   0.000000  -0.000016  -0.000004   0.000000  -0.000000
    23  H    0.000000   0.000000  -0.000005  -0.000002   0.000001   0.000000
    24  H   -0.000000  -0.000000   0.000001   0.000000  -0.000000   0.000000
    25  C   -0.000029  -0.000395  -0.000014  -0.000132   0.000133  -0.000000
    26  F   -0.000000   0.000000  -0.000000  -0.000000   0.000000  -0.000000
    27  F   -0.000000  -0.000000   0.000000  -0.000000   0.000000  -0.000000
    28  F   -0.000000  -0.000000   0.000000   0.000000   0.000000  -0.000000
    29  Cl   0.000049   0.000920   0.000487   0.000535  -0.000043   0.000000
    30  Cl  -0.003279  -0.013653  -0.002408  -0.000563   0.003061   0.000010
    31  O    8.572741  -0.192625   0.517626  -0.348389   0.044515  -0.003259
    32  O   -0.192625   8.612495   0.362346  -0.151200   0.049255   0.000827
    33  C    0.517626   0.362346   5.479274  -0.764740  -0.040474  -0.063499
    34  C   -0.348389  -0.151200  -0.764740   7.287368  -0.206288   0.437164
    35  C    0.044515   0.049255  -0.040474  -0.206288   5.738029  -0.056290
    36  H   -0.003259   0.000827  -0.063499   0.437164  -0.056290   0.510183
    37  H   -0.002681   0.000646  -0.063011   0.433209  -0.053083  -0.026605
    38  H    0.000030  -0.007850  -0.014889  -0.037347   0.410517  -0.003930
    39  H   -0.000202   0.002679   0.050022  -0.113170   0.392717  -0.002365
    40  H    0.000032  -0.007182  -0.016338  -0.032205   0.405963   0.003655
              37         38         39         40
     1  C   -0.000001  -0.000017   0.000000  -0.000004
     2  C   -0.000003   0.000121  -0.000007   0.000070
     3  C    0.000038  -0.000278   0.000031  -0.000153
     4  C   -0.000046  -0.000183  -0.000022  -0.000089
     5  C    0.000029   0.000058  -0.000004   0.000022
     6  C    0.000003   0.000006  -0.000000  -0.000002
     7  N   -0.000017  -0.000071   0.000010  -0.000018
     8  C   -0.000001  -0.000019   0.000024   0.000011
     9  N   -0.000050  -0.000002  -0.000002   0.000002
    10  O   -0.000000  -0.000000   0.000000  -0.000000
    11  C   -0.000016  -0.000002  -0.000004   0.000003
    12  C    0.000048   0.000008   0.000003   0.000010
    13  C    0.000005   0.000000   0.000000   0.000001
    14  H   -0.000003   0.000000  -0.000000  -0.000001
    15  H   -0.000001   0.000000   0.000000  -0.000000
    16  H   -0.000000   0.000000  -0.000000  -0.000000
    17  H   -0.000000  -0.000000  -0.000000   0.000000
    18  H   -0.000000  -0.000000  -0.000000   0.000000
    19  H   -0.000000  -0.000000  -0.000000  -0.000000
    20  H    0.000000  -0.000000  -0.000000  -0.000000
    21  H   -0.000000  -0.000000   0.000000  -0.000000
    22  H   -0.000000  -0.000000  -0.000000  -0.000000
    23  H    0.000000  -0.000000   0.000000  -0.000000
    24  H    0.000000   0.000000   0.000000   0.000000
    25  C    0.000000   0.000000  -0.000000  -0.000000
    26  F    0.000000  -0.000000   0.000000  -0.000000
    27  F    0.000000  -0.000000  -0.000000   0.000000
    28  F    0.000000   0.000000  -0.000000   0.000000
    29  Cl  -0.000001  -0.000001  -0.000000   0.000002
    30  Cl  -0.000026   0.000101  -0.000015   0.000049
    31  O   -0.002681   0.000030  -0.000202   0.000032
    32  O    0.000646  -0.007850   0.002679  -0.007182
    33  C   -0.063011  -0.014889   0.050022  -0.016338
    34  C    0.433209  -0.037347  -0.113170  -0.032205
    35  C   -0.053083   0.410517   0.392717   0.405963
    36  H   -0.026605  -0.003930  -0.002365   0.003655
    37  H    0.509224   0.003668  -0.002383  -0.003987
    38  H    0.003668   0.486923  -0.031679  -0.020462
    39  H   -0.002383  -0.031679   0.576099  -0.031451
    40  H   -0.003987  -0.020462  -0.031451   0.485464
 Mulliken charges:
               1
     1  C   -1.685187
     2  C    0.600899
     3  C    0.135782
     4  C   -0.524209
     5  C   -0.003107
     6  C   -0.128159
     7  N   -0.567539
     8  C    0.318671
     9  N   -0.644983
    10  O   -0.573425
    11  C   -0.079057
    12  C   -0.302868
    13  C   -0.763448
    14  H    0.501344
    15  H    0.488056
    16  H    0.204824
    17  H    0.208193
    18  H    0.240224
    19  H    0.224246
    20  H    0.198771
    21  H    0.198340
    22  H    0.197672
    23  H    0.238310
    24  H    0.242280
    25  C    1.503813
    26  F   -0.336336
    27  F   -0.267880
    28  F   -0.268432
    29  Cl   0.253482
    30  Cl   0.276191
    31  O   -0.613419
    32  O   -0.691217
    33  C    0.584006
    34  C   -0.478234
    35  C   -0.688439
    36  H    0.204165
    37  H    0.205045
    38  H    0.215298
    39  H    0.159718
    40  H    0.216607
 Sum of Mulliken charges =  -1.00000
 Mulliken charges with hydrogens summed into heavy atoms:
               1
     1  C   -1.685187
     2  C    0.839209
     3  C    0.135782
     4  C   -0.524209
     5  C   -0.003107
     6  C    0.114122
     7  N   -0.066195
     8  C    0.318671
     9  N   -0.156927
    10  O   -0.573425
    11  C    0.333959
    12  C    0.161602
    13  C   -0.168664
    25  C    1.503813
    26  F   -0.336336
    27  F   -0.267880
    28  F   -0.268432
    29  Cl   0.253482
    30  Cl   0.276191
    31  O   -0.613419
    32  O   -0.691217
    33  C    0.584006
    34  C   -0.069024
    35  C   -0.096817
 Electronic spatial extent (au):  <R**2>=          13441.5628
 Charge=             -1.0000 electrons
 Dipole moment (field-independent basis, Debye):
    X=              5.7596    Y=             -2.6119    Z=              0.9310  Tot=              6.3924
 Quadrupole moment (field-independent basis, Debye-Ang):
   XX=           -212.5707   YY=           -190.4294   ZZ=           -161.5907
   XY=             15.0898   XZ=             -3.6026   YZ=              5.8008
 Traceless Quadrupole moment (field-independent basis, Debye-Ang):
   XX=            -24.3738   YY=             -2.2324   ZZ=             26.6062
   XY=             15.0898   XZ=             -3.6026   YZ=              5.8008
 Octapole moment (field-independent basis, Debye-Ang**2):
  XXX=            100.9882  YYY=            -20.1637  ZZZ=             -0.1226  XYY=             79.8519
  XXY=            -56.9602  XXZ=             12.0764  XZZ=             21.5276  YZZ=              0.6170
  YYZ=              7.8417  XYZ=             -7.2145
 Hexadecapole moment (field-independent basis, Debye-Ang**3):
 XXXX=         -13146.1443 YYYY=          -5314.7051 ZZZZ=          -1042.5436 XXXY=            133.7706
 XXXZ=            -57.7086 YYYX=            107.0712 YYYZ=            152.6402 ZZZX=             -8.3917
 ZZZY=             36.5914 XXYY=          -2916.3118 XXZZ=          -2116.2161 YYZZ=           -974.1482
 XXYZ=             78.1561 YYXZ=            -14.9208 ZZXY=             12.9016
 N-N= 2.384738806945D+03 E-N=-9.735476130491D+03  KE= 2.084501826055D+03
 Calling FoFJK, ICntrl=      2127 FMM=F ISym2X=0 I1Cent= 0 IOpClX= 0 NMat=1 NMatS=1 NMatT=0.
 ***** Axes restored to original set *****
 -------------------------------------------------------------------
 Center     Atomic                   Forces (Hartrees/Bohr)
 Number     Number              X              Y              Z
[...]
 8872,0.00001100,0.00000445,-0.00000029,0.00001900,-0.00000591,0.000005
 04,0.00006769,0.00000752,0.00000342,-0.00001004,-0.00001181,0.00000825
 ,-0.00001217,-0.00002275,-0.00001670,0.00002234,0.00000101,0.00000818,
 -0.00000820,-0.00001280,0.00037368,-0.00006306,0.00003218,0.00003466,-
 0.00007259,0.00000363,-0.00000237,0.00000408,0.00000094,0.00000503,-0.
 00000033,0.00000255,0.00001004,-0.00000256,0.00000337,0.00000608,-0.00
 001215,0.00000318,0.00000360,0.00000272,0.00000414,-0.00000577,0.00000
 511,0.00000041,-0.00000185,-0.00000217,0.00000258,-0.00000216,-0.00000
 306,0.00000136,-0.00000122,-0.00000161,0.00001046,-0.00001856,-0.00001
 479,-0.00000309,0.00000563,0.00000104,-0.00000086,0.00000563,0.0000033
 5,-0.00000605,0.00000790,0.00000953,0.00000104,0.00000407,0.00000086,0
 .00001648,0.00001529,-0.00000949,0.00061093,0.00124964,-0.00074787,0.0
 0185409,-0.00103902,-0.00335562,0.00730690,-0.01468618,0.01181329,-0.0
 7022442,0.10050899,-0.12704510,-0.00457995,0.00663793,-0.00609263,0.07
 890812,-0.10953739,0.13977222,-0.00001178,0.00001034,-0.00000850,0.000
 01118,0.00002067,-0.00000292,-0.00002762,-0.00012215,0.00003629,0.0000
 5434,0.00003518,0.00002660,-0.00005707,-0.00002794,0.00000220,0.000007
 17,0.00001828,-0.00000846,0.00001905,0.00028498,0.00014852,-0.00024575
 ,0.00004047,-0.00009637,0.00011377,-0.00010701,-0.00000802,0.00006714,
 -0.00000403,0.00002416,-0.00000402,-0.00000115,0.00000342,-0.00000465,
 0.00000934,0.00000430,0.00000464,-0.00000737,-0.00000031,0.00004604,-0
 .00041840,-0.00019725,-0.00006587,0.00017737,0.00005591,0.00000174,-0.
 00000178,-0.00000414,0.00000430,0.,0.00000204,0.00001377,0.00000129,-0
 .00000209,-0.00000116,-0.00000111,0.00001010,-0.00000186,-0.00000043,-
 0.00000088,0.00000004,0.00000079,0.00000024,-0.00000160,-0.00000070,-0
 .00000460,0.00000391,-0.00000439,0.00000177,-0.00000195,0.00000319,0.0
 0000208,0.00002328,-0.00003685,0.00001430,-0.00000534,0.00002076,-0.00
 001376,-0.00000339,0.00000807,-0.00000228,-0.00000844,0.00001101,0.000
 00310,0.00003472,0.00002222,-0.00000957,0.00002310,0.00005514,-0.00002
 770,0.00066032,-0.00071855,-0.00175248,0.00037566,0.00252426,0.0005100
 7,-0.00518806,-0.00132028,0.00374947,-0.14206171,-0.03434082,0.1236789
 5,-0.01725564,-0.00606017,0.02237601,0.00960666,0.00284044,-0.01251287
 ,0.15681016,0.00003276,-0.00001621,0.00001141,-0.00001265,0.00002031,-
 0.00000305,0.00003593,-0.00001391,0.00003039,-0.00022655,0.00007645,-0
 .00007185,0.00006855,-0.00003838,0.00000445,-0.00002818,-0.00000172,0.
 00000723,0.00012189,-0.00057840,-0.00033996,0.00020425,-0.00000826,0.0
 0015691,-0.00007876,0.00014103,0.00003309,-0.00006101,-0.00004445,-0.0
 0007711,0.00000744,0.00000937,0.00001018,0.00000144,-0.00000956,-0.000
 00472,-0.00000325,0.00000603,0.00000163,-0.00014071,0.00080678,0.00057
 646,0.00006762,-0.00012556,0.00000386,-0.00000106,-0.00000259,-0.00000
 016,-0.00000545,-0.00000240,-0.00000449,0.00000172,0.00000465,0.000004
 89,0.00000233,-0.00000159,-0.00000183,0.00000085,0.00000114,-0.0000002
 6,-0.00000153,-0.00000123,0.00000120,0.00000088,-0.00000157,-0.0000000
 7,0.00000322,-0.00000214,-0.00000249,0.00000320,-0.00000344,-0.0000012
 0,-0.00004295,0.00001980,-0.00001238,0.00000637,-0.00001007,0.00000626
 ,0.00001574,0.00000309,0.00000412,0.00001221,-0.00000847,-0.00000347,-
 0.00001421,-0.00000694,0.00000368,0.00000588,0.00001889,-0.00001324,-0
 .00064966,-0.00095568,0.00283921,0.00190656,-0.00628184,0.00012782,0.0
 1666717,0.00859038,-0.02437195,-0.03341329,-0.05480687,0.03964501,-0.0
 0758175,-0.00318970,0.00947408,-0.01438940,-0.00496979,0.01886517,0.03
 868827,0.06129943,0.00005156,-0.00003194,0.00001894,-0.00002553,0.0000
 0673,-0.00000181,0.00006933,0.00007390,0.00001402,-0.00027291,0.000077
 61,-0.00007703,0.00009866,-0.00002122,-0.00000612,-0.00003379,-0.00001
 223,0.00000841,0.00012296,-0.00058498,-0.00030942,0.00020332,0.0000723
 3,0.00021181,-0.00009715,0.00001325,-0.00002620,-0.00005559,-0.0001096
 6,-0.00012857,0.00006625,0.00001968,0.00005257,0.00002021,0.00001549,-
 0.00004523,-0.00000122,-0.00000401,0.00001042,-0.00014277,0.00087452,0
 .00048003,0.00005153,0.00000348,0.00006290,-0.00000881,0.00000076,-0.0
 0000889,-0.00001930,-0.00002033,-0.00000801,0.00001152,-0.00000170,0.0
 0000724,-0.00000350,-0.00001037,0.00002545,-0.00000760,-0.00001205,-0.
 00000509,-0.00000763,0.00000992,-0.00000964,-0.00000160,0.00000127,0.0
 0000278,-0.00000066,0.00000143,-0.00000335,0.00000342,-0.00000454,-0.0
 0000009,-0.00010589,0.00007652,-0.00001613,0.00001987,-0.00003732,0.00
 001910,0.00003426,-0.00000507,0.00000656,0.00003364,-0.00002972,-0.000
 01688,-0.00003181,-0.00002457,0.00000879,-0.00001153,-0.00003260,0.000
 00118,-0.00248574,-0.00194598,0.00230914,0.00037052,-0.00430041,-0.000
 54574,0.01216777,0.00863955,-0.01337109,0.12256437,0.04264223,-0.20616
 809,-0.00888773,-0.00312958,0.01076098,0.01109948,0.00344513,-0.015202
 07,-0.13345396,-0.04505967,0.22051135,0.00000104,-0.00000092,0.0000008
 2,0.00000195,0.00000374,-0.00000361,-0.00000924,-0.00000364,-0.0000158
 9,0.00000233,0.00000134,0.00000246,-0.00000841,-0.00000558,0.00000317,
 0.00000139,0.00000076,-0.00000066,0.00000699,0.00001037,-0.00001141,-0
 .00005860,0.00001600,0.00000556,0.00004496,-0.00005590,-0.00008143,0.0
 0002113,-0.00002087,-0.00002049,0.00001113,-0.00000334,0.00000862,-0.0
 0002190,-0.00001508,0.00002558,0.00000583,0.00000237,-0.00000604,0.000
 01463,-0.00002697,0.00000774,-0.00003908,0.00010366,0.00011530,-0.0000
 0024,-0.00000600,-0.00000818,-0.00000111,0.00000392,-0.00000036,0.0000
 1212,0.00000667,-0.00000224,0.00000184,0.00000566,-0.00000487,0.000002
 16,0.00000365,0.00000128,-0.00000313,-0.00000044,0.00000290,-0.0000008
 1,-0.00000388,-0.00000720,-0.00000023,0.00000109,0.00000146,-0.0000007
 3,0.00000018,0.00000045,-0.00001051,0.00000757,0.00000716,0.00000232,-
 0.00000158,-0.00000096,0.00000344,-0.00000106,-0.00000105,0.00000434,-
 0.00000376,-0.00000532,0.00000487,0.00000261,-0.00000154,0.00002274,-0
 .00004168,-0.00000432,0.00078228,-0.00019520,-0.00048217,0.00171962,0.
 00022945,-0.00061693,-0.00165707,0.00152624,0.00134003,-0.01866833,-0.
 00726508,0.02370214,-0.14331709,-0.03358721,0.12652866,0.00080134,0.00
 090214,0.00022108,-0.00480514,-0.00222492,-0.00300216,0.15836174,-0.00
 002999,0.00002502,-0.00001711,0.00002575,0.00005168,-0.00000870,-0.000
 07515,-0.00024103,0.00008992,0.00005591,0.00005028,0.00001303,-0.00005
 306,-0.00004269,0.00000574,0.00000255,0.00003010,-0.00000907,0.0000116
 5,0.00020982,0.00011781,-0.00016443,-0.00004492,-0.00013269,0.00009339
 ,-0.00001347,0.00000973,0.00004330,0.00005077,0.00006875,-0.00004801,-
 0.00000957,-0.00003460,0.00000012,0.00000420,0.00000960,-0.00000049,-0
 .00000153,-0.00000278,0.00006818,-0.00034112,-0.00012082,-0.00004517,-
 0.00002339,-0.00000133,0.00000318,0.00000116,0.00000574,0.00001454,0.0
 0000801,0.00000636,-0.00000453,-0.00000022,-0.00000461,-0.00000419,0.0
 0000345,-0.00000454,0.00000190,0.00000310,0.00000140,0.00000810,-0.000
 00529,0.00000387,0.,0.00000112,0.00000066,0.00000822,-0.00000673,0.000
 00474,-0.00000066,0.00000330,0.00000082,0.00009713,-0.00007320,0.00001
 377,-0.00002104,0.00003910,-0.00002139,-0.00003033,0.00000912,-0.00000
 664,-0.00003068,0.00002789,0.00001694,0.00003805,0.00002922,-0.0000092
 6,0.00007348,0.00012740,-0.00007200,0.00106085,-0.00014857,-0.00012187
 ,0.00163743,0.00016873,-0.00063227,-0.00259504,0.00079059,0.00125883,-
 0.00673146,-0.00295465,0.00948338,-0.03257769,-0.05895066,0.04319219,0
 .00052667,0.00046399,-0.00034827,-0.00225017,-0.00037438,-0.00129746,0
 .03788265,0.05923143,-0.00002247,0.00000744,-0.00000351,0.00000666,-0.
 00002026,0.00000177,-0.00003087,0.00009587,-0.00004569,0.00011637,-0.0
 0008797,0.00002613,0.00000563,0.00005322,-0.00000362,0.00001407,-0.000
 01446,0.00000475,-0.00011150,0.00010594,0.00003714,0.00010005,-0.00004
 939,-0.00001657,-0.00005647,0.00008187,0.00004565,-0.00003158,0.000045
 67,0.00003465,-0.00001252,-0.00000375,-0.00000813,0.00000280,-0.000006
 05,-0.00000501,-0.00000325,0.00000294,-0.00000114,0.00004653,-0.000154
 80,-0.00008441,0.00002501,-0.00009524,-0.00008782,0.00000048,0.0000023
 1,0.00000672,0.00000198,0.00000330,-0.00000043,-0.00000893,-0.00000265
 ,0.00000131,0.00000046,0.00000133,-0.00000725,0.00000239,0.00000170,0.
 00000044,0.00000125,-0.00000154,-0.00000074,0.00000020,0.00000164,0.00
 000541,-0.00000534,0.00000643,0.00000229,-0.00000024,-0.00000080,-0.00
 000181,0.00003835,0.00000966,-0.00000297,-0.00000578,-0.00000600,0.000
 00572,-0.00001988,-0.00001092,-0.00000319,-0.00000906,0.00000131,0.000
 00321,-0.00002369,-0.00001438,0.00000713,-0.00000053,-0.00002778,0.000
 03610,-0.00003867,0.00054073,0.00017992,-0.00107994,-0.00039123,-0.000
 18113,0.00072152,-0.00116217,-0.00006984,-0.00760243,-0.00230520,0.010
 27985,0.12763979,0.04515072,-0.21337487,0.00069318,0.00033746,0.000841
 86,-0.00255613,-0.00169978,0.00020469,-0.13730887,-0.04735417,0.229876
 46,0.00000944,-0.00000093,-0.00000124,0.00000746,0.00002973,-0.0000024
 0,-0.00000119,-0.00011525,0.00004957,-0.00008830,0.00008869,-0.0000195
 8,-0.00000538,-0.00004900,0.00000136,-0.00001292,0.00001503,-0.0000040
 2,0.00012169,-0.00001394,0.00005990,-0.00030905,0.00008762,-0.00008370
 ,0.00019074,-0.00027777,-0.00019122,0.00009005,-0.00007736,-0.00002265
 ,0.00004493,0.00000377,0.00001755,-0.00002201,0.00000482,0.00001721,0.
 00001182,-0.00000524,-0.00000501,0.00000241,-0.00000087,-0.00000353,-0
 .00015468,0.00036642,0.00034045,-0.00000608,-0.00000726,-0.00001682,-0
 .00000553,-0.00000612,-0.00000077,0.00002788,0.00000667,0.00000018,0.0
 0000005,-0.00000060,0.00000954,-0.00000345,-0.00000309,-0.00000086,-0.
 00000454,0.00000345,-0.00000116,-0.00000374,-0.00000278,-0.00000848,0.
 00000604,-0.00000381,-0.00000085,0.00000054,0.00000005,-0.00000018,0.0
 0001340,-0.00001439,-0.00000482,-0.00000440,0.00000779,-0.00000290,-0.
 00000270,0.00000475,0.00000049,-0.00000514,0.00000584,0.00000573,0.000
 01661,0.00001353,-0.00000305,0.00003161,0.00005336,-0.00003513,-0.0005
 8328,-0.00294049,-0.00204118,0.00231126,0.00033468,0.00035925,-0.00729
 051,0.00256890,0.00101123,0.00552222,-0.02736656,-0.01754162,-0.053176
 22,0.03070318,0.02012358,0.00112974,0.00089436,0.00023213,0.00107027,0
 .00040927,0.00087003,-0.00281005,0.01727769,0.00829182,0.05670043,0.00
 007129,-0.00004302,0.00002744,-0.00003049,0.00001406,-0.00000431,0.000
 08374,0.00007451,0.00001227,-0.00029206,0.00012719,-0.00005393,0.00006
 884,-0.00004449,-0.00000977,-0.00003418,-0.00000707,0.00000111,0.00021
 826,-0.00038506,-0.00014824,-0.00016676,0.00022378,0.00015907,0.000105
 57,-0.00030211,-0.00023709,0.00005931,-0.00021029,-0.00017370,0.000112
 79,0.00002379,0.00007047,-0.00002153,0.00000550,0.00001735,0.00001694,
 -0.00000428,-0.00000066,-0.00014799,0.00060528,0.00028153,-0.00007987,
 0.00048328,0.00043140,-0.00000757,-0.00001276,-0.00003197,-0.00002681,
 -0.00002290,-0.00000700,0.00004513,0.00001674,0.00000203,-0.00000098,-
 0.00000676,0.00002456,-0.00000978,-0.00001183,-0.00000164,-0.00001374,
 0.00001259,-0.00000307,-0.00000336,-0.00000684,-0.00001875,-0.00000197
 ,0.00000223,-0.00000319,0.00000053,-0.00000348,0.00000155,-0.00018697,
 0.00011367,-0.00001829,0.00003623,-0.00005347,0.00002544,0.00006673,-0
 .00000366,0.00001197,0.00005786,-0.00004669,-0.00002979,-0.00001250,-0
 .00001618,0.00000397,-0.00000429,-0.00004745,0.00000081,-0.00146688,-0
 .00181860,-0.00137930,-0.00064139,-0.00062272,-0.00093013,-0.00074667,
 0.00204523,0.00085560,0.00357019,-0.00922398,-0.00503752,0.03067497,-0
 .22961703,-0.11532089,-0.00025620,0.00068261,-0.00015081,-0.00015046,-
 0.00019074,0.00045898,-0.00017771,0.00690355,0.00394225,-0.03304763,0.
 24919859,0.00005069,-0.00003050,0.00001967,-0.00002111,-0.00000656,0.0
 0000193,0.00007342,0.00008409,-0.00001003,-0.00019268,0.00007419,-0.00
 004159,0.00004312,-0.00003052,-0.00000476,-0.00002071,-0.00000839,0.00
 000102,0.00015271,-0.00026947,-0.00007711,-0.00014788,0.00016163,0.000
 09062,0.00008546,-0.00023656,-0.00017173,0.00004884,-0.00014673,-0.000
 11560,0.00008309,0.00001539,0.00005029,-0.00001683,0.00000568,0.000013
 45,0.00001350,-0.00000527,-0.00000069,-0.00010485,0.00042408,0.0001621
 5,-0.00006545,0.00035825,0.00031506,-0.00000542,-0.00000853,-0.0000228
 5,-0.00001936,-0.00001530,-0.00000480,0.00003202,0.00000929,0.00000256
 ,0.00000236,-0.00000537,0.00001679,-0.00000690,-0.00000704,-0.00000143
 ,-0.00001169,0.00000928,-0.00000243,-0.00000236,-0.00000490,-0.0000133
 8,-0.00000132,0.00000183,-0.00000482,0.00000034,-0.00000258,0.00000068
 ,-0.00012324,0.00007085,-0.00001421,0.00002404,-0.00003487,0.00001731,
 0.00004423,-0.00000143,0.00000878,0.00003752,-0.00002963,-0.00001863,-
 0.00000990,-0.00001095,0.00000339,-0.00003074,-0.00002934,0.00002847,-
 0.00105098,-0.00150327,-0.00109367,-0.00030357,-0.00091286,0.00012376,
 -0.00120733,0.00118577,0.00120903,0.00304199,-0.00809099,-0.00616980,0
 .02008869,-0.11529502,-0.12517502,0.00015106,0.00019953,-0.00031028,-0
 .00019286,0.00027883,0.00057466,0.00211197,-0.02212328,-0.01288621,-0.
 02096558,0.13022198,0.13175214,0.00000275,-0.00000392,0.00000134,-0.00
 000244,-0.00000752,0.00000152,0.00001090,0.00006195,-0.00002070,-0.000
 00145,-0.00001025,-0.00000457,0.00002066,0.00001481,-0.00000535,-0.000
 00020,-0.00000905,0.00000492,0.00001676,-0.00001893,0.00003992,-0.0000
 9996,0.00003819,-0.00002972,0.00004442,-0.00008961,-0.00003178,0.00002
 746,-0.00002790,-0.00000468,-0.00000415,0.00000710,-0.00001108,0.00000
 067,0.00000722,0.00000755,0.00000469,-0.00000200,-0.00000024,0.0000140
 8,0.00002690,-0.00001921,-0.00001628,0.00009267,0.00006574,0.00000142,
 -0.00000359,-0.00000292,0.00000014,-0.00000721,0.00000108,0.00000971,0
 .00001406,-0.00000523,-0.00000832,-0.00000211,0.00001391,-0.00000453,-
 0.00000486,-0.00000050,0.00000413,0.00000003,0.00000350,-0.00000048,-0
 .00000199,-0.00000612,-0.00000307,0.00000286,0.00000059,0.00000044,-0.
 00000172,-0.00000199,-0.00000641,0.00001906,-0.00001049,0.00000173,-0.
 00001115,0.00000870,-0.00000020,-0.00000514,0.00000129,0.00000262,-0.0
 0000435,0.00000063,-0.00001767,-0.00000924,0.00000659,0.00000215,-0.00
 005259,-0.00000406,0.00057996,-0.00049278,0.00015343,0.00124934,-0.000
 59177,0.00041606,-0.00117785,0.00165564,0.00060878,-0.01455484,0.02073
 312,-0.01822784,-0.10479992,0.08611831,-0.07128663,-0.00500557,-0.0030
 6267,-0.00183490,0.00079979,0.00061177,0.00079820,0.00958148,-0.014268
 64,0.01121964,-0.00281943,0.00233940,-0.00158429,0.11614743,-0.0000328
 6,0.00001988,-0.00001150,0.00001479,-0.00001214,-0.00000339,-0.0000373
 0,-0.00000344,-0.00002227,0.00014186,-0.00007140,0.00002215,-0.0000205
 0,0.00003105,0.00000384,0.00001548,-0.00000160,-0.00000124,-0.00010593
 ,0.00017185,0.00006968,0.00004419,-0.00006368,-0.00005730,-0.00002751,
 0.00008265,0.00004956,-0.00001728,0.00006394,0.00005283,-0.00002776,-0
 .00000794,-0.00001628,0.00000466,-0.00000416,-0.00000246,-0.00000369,0
 .00000103,-0.00000020,0.00006042,-0.00027058,-0.00012172,0.00000953,-0
 .00010784,-0.00008755,0.00000188,0.00000203,0.00000738,0.00000717,0.00
 000661,0.00000119,-0.00000989,-0.00000233,-0.00000079,0.00000066,0.000
 00310,-0.00000539,0.00000297,0.00000387,0.00000002,0.00000206,-0.00000
 255,0.00000095,0.00000046,0.00000100,0.00000419,-0.00000236,0.00000207
 ,0.00000709,-0.00000044,0.00000151,0.00000049,0.00007644,-0.00002368,0
 .00002657,-0.00001378,0.00001542,-0.00001183,-0.00003257,-0.00000727,-
 0.00001109,-0.00001914,0.00001045,0.00000086,-0.00000321,-0.00000023,0
 .00000043,-0.00000043,0.00000392,0.00001967,0.00025918,0.00026658,0.00
 041255,-0.00044088,-0.00027421,-0.00017445,-0.00010625,0.00000589,-0.0
 0093707,-0.00607674,0.00969243,-0.00770074,0.08723769,-0.17558989,0.10
 757035,-0.00263269,-0.00034913,-0.00173614,0.00080170,0.00064858,0.000
 24263,0.00293071,-0.00500160,0.00301674,0.01105347,-0.01783120,0.01570
 868,-0.09305411,0.18859102,-0.00000886,0.00001105,-0.00000704,0.000014
 77,0.00001048,0.00000411,-0.00001108,-0.00012311,0.00003921,0.00001487
 ,0.00003620,-0.00001342,-0.00004193,-0.00004236,0.00000724,0.00000146,
 0.00001721,-0.00000562,0.00006794,0.00011769,0.00014818,-0.00024879,0.
 00000005,-0.00015539,0.00012095,-0.00008633,0.00001290,0.00006291,0.00
 002081,0.00006563,-0.00004301,-0.00000134,-0.00003986,0.00000799,0.000
 01901,0.00000473,0.00000196,-0.00000619,0.00000006,0.00003873,-0.00021
 020,-0.00013656,-0.00004411,0.00003711,0.00002015,0.00000376,0.0000017
 9,0.00000518,0.00001235,0.00000046,0.00000736,-0.00000091,0.00000394,-
 0.00000539,-0.00000727,-0.00000296,0.00000723,-0.00000309,-0.00000174,
 0.00000035,0.00000946,-0.00000377,0.00000426,0.00000007,0.00000125,-0.
 00000168,0.00000770,-0.00000583,-0.00000586,-0.00000006,0.00000124,-0.
 00000134,0.00006948,-0.00006897,-0.00001490,-0.00001515,0.00002853,-0.
 00000911,-0.00001778,0.00001293,0.00000234,-0.00002629,0.00002724,0.00
 002436,0.00002696,0.00002213,-0.00000497,0.00000356,0.00009111,-0.0000
 0396,0.00104222,-0.00043794,-0.00014261,0.00201760,-0.00058651,0.00081
 144,-0.00276363,0.00196398,0.00042584,-0.00433260,0.00673230,-0.006390
 21,-0.07102563,0.10549106,-0.13561821,-0.00194511,-0.00136558,0.000388
 17,0.00020566,-0.00041823,0.00065842,-0.01250070,0.01801960,-0.0148168
 3,0.00956671,-0.01298971,0.01174726,0.07973888,-0.11631642,0.14298852\
 \-0.00000624,0.00000229,-0.00000124,-0.00000088,0.00000332,0.00000125,
 0.00001252,0.00000385,0.00000190,-0.00000442,-0.00001695,0.00000352,-0
 .00000197,0.00000374,-0.00000180,0.00000370,0.00000059,-0.00000164,-0.
 00001041,0.00000777,-0.00000880,-0.00000119,-0.00000231,0.00000465,0.0
 0000521,0.00001619,0.00000797,-0.00000234,0.00000270,-0.00000366,-0.00
 000379,-0.00000244,-0.00000049,0.00000246,-0.00000261,-0.00000439,-0.0
 0000157,-0.00000048,0.00000163,-0.00000045,0.00000212,0.00000222,0.000
 00094,-0.00000644,-0.00000459,-0.00000073,-0.00000139,-0.00000016,0.00
 000040,-0.00000109,-0.00000195,-0.00000052,0.00000220,-0.00000118,-0.0
 0000077,-0.00000032,0.00000438,0.00000014,0.00000017,-0.00000065,0.000
 00019,-0.00000023,0.00000026,0.00000020,0.00000033,0.00000103,0.000001
 16,-0.00000064,0.00000007,0.00000021,0.00000056,-0.00000072,-0.0000080
 0,-0.00000897,-0.00001705,0.00000449,-0.00000387,-0.00000326,0.0000091
 6,0.00000473,0.00000012,-0.00000203,0.00000592,0.00001962,0.00000308,0
 .00000004,0.00000274,0.00000011,-0.00000084,-0.00000109,0.00000138,-0.
 00000596,-0.00000317,0.00000724,-0.00000787,-0.00000356,-0.00000373,-0
 .00000111,0.00000068,-0.00000021,0.00000936,0.00000629,-0.00000215,0.0
 0000119,0.00000097,-0.00000153,-0.00000125,0.00000007,-0.00000072,-0.0
 0000058,-0.00000070,-0.00000004,-0.00000054,0.00000075,0.00000022,-0.0
 0000096,0.00000047,0.00000089,-0.00000020,-0.00000046\\\@


 LOGIC IS A SYSTEMATIC METHOD OF COMING TO THE
 WRONG CONCLUSION WITH CONFIDENCE.
 Job cpu time:       0 days  7 hours 42 minutes 23.9 seconds.
 File lengths (MBytes):  RWF=   1095 Int=      0 D2E=      0 Chk=     19 Scr=      1
 Normal termination of Gaussian 09 at Tue Feb 19 15:16:09 2019.
WARNING: pbs_rusage is deprecated and values produced may not be accurate


=============================================================================
                                     Resource usage:
                                       CPU time:              46:27:05
   JobId:    5874030.r-man2            Elapsed time:          05:49:21
   Project:             q95            Requested time:        48:00:00
   Service Units:     46.58 
                                       Max physical memory:     1579MB
                                       Max virtual memory:      2945MB
                                       Requested memory:           0MB

                                       Number of cpus:               8

                                       Max jobfs disk use:       1.1GB
                                       Requested jobfs:         24.0GB
=============================================================================

