 Entering Gaussian System, Link 0=/apps/gaussian/g09e01/g09/g09
 AtFile(1): /home/507/hio507/Basis/6-31pGd.gbs
 Initial command:
 /apps/gaussian/g09e01/g09/l1.exe "/jobfs/local/5975056.r-man2/Gau-50670.inp" -scrdir="/jobfs/local/5975056.r-man2/"
 Entering Link 1 = /apps/gaussian/g09e01/g09/l1.exe PID=     50671.
  
 Copyright (c) 1988,1990,1992,1993,1995,1998,2003,2009,2015,
            Gaussian, Inc.  All Rights Reserved.
  
 This is part of the Gaussian(R) 09 program.  It is based on
 the Gaussian(R) 03 system (copyright 2003, Gaussian, Inc.),
 the Gaussian(R) 98 system (copyright 1998, Gaussian, Inc.),
 the Gaussian(R) 94 system (copyright 1995, Gaussian, Inc.),
 the Gaussian 92(TM) system (copyright 1992, Gaussian, Inc.),
 the Gaussian 90(TM) system (copyright 1990, Gaussian, Inc.),
 the Gaussian 88(TM) system (copyright 1988, Gaussian, Inc.),
 the Gaussian 86(TM) system (copyright 1986, Carnegie Mellon
 University), and the Gaussian 82(TM) system (copyright 1983,
 Carnegie Mellon University). Gaussian is a federally registered
 trademark of Gaussian, Inc.
  
 This software contains proprietary and confidential information,
 including trade secrets, belonging to Gaussian, Inc.
  
 This software is provided under written license and may be
 used, copied, transmitted, or stored only in accord with that
 written license.
  
 The following legend is applicable only to US Government
 contracts under FAR:
  
                    RESTRICTED RIGHTS LEGEND
  
 Use, reproduction and disclosure by the US Government is
 subject to restrictions as set forth in subparagraphs (a)
 and (c) of the Commercial Computer Software - Restricted
 Rights clause in FAR 52.227-19.
  
 Gaussian, Inc.
 340 Quinnipiac St., Bldg. 40, Wallingford CT 06492
  
  
 ---------------------------------------------------------------
 Warning -- This program may not be used in any manner that
 competes with the business of Gaussian, Inc. or will provide
 assistance to any competitor of Gaussian, Inc.  The licensee
 of this program is prohibited from giving any competitor of
 Gaussian, Inc. access to this program.  By using this program,
 the user acknowledges that Gaussian, Inc. is engaged in the
 business of creating and licensing software in the field of
 computational chemistry and represents and warrants to the
 licensee that it is not a competitor of Gaussian, Inc. and that
 it will not use this program in any manner prohibited above.
 ---------------------------------------------------------------
  

 Cite this work as:
 Gaussian 09, Revision E.01,
 M. J. Frisch, G. W. Trucks, H. B. Schlegel, G. E. Scuseria, 
 M. A. Robb, J. R. Cheeseman, G. Scalmani, V. Barone, B. Mennucci, 
 G. A. Petersson, H. Nakatsuji, M. Caricato, X. Li, H. P. Hratchian, 
 A. F. Izmaylov, J. Bloino, G. Zheng, J. L. Sonnenberg, M. Hada, 
 M. Ehara, K. Toyota, R. Fukuda, J. Hasegawa, M. Ishida, T. Nakajima, 
 Y. Honda, O. Kitao, H. Nakai, T. Vreven, J. A. Montgomery, Jr., 
 J. E. Peralta, F. Ogliaro, M. Bearpark, J. J. Heyd, E. Brothers, 
 K. N. Kudin, V. N. Staroverov, T. Keith, R. Kobayashi, J. Normand, 
 K. Raghavachari, A. Rendell, J. C. Burant, S. S. Iyengar, J. Tomasi, 
 M. Cossi, N. Rega, J. M. Millam, M. Klene, J. E. Knox, J. B. Cross, 
 V. Bakken, C. Adamo, J. Jaramillo, R. Gomperts, R. E. Stratmann, 
 O. Yazyev, A. J. Austin, R. Cammi, C. Pomelli, J. W. Ochterski, 
 R. L. Martin, K. Morokuma, V. G. Zakrzewski, G. A. Voth, 
 P. Salvador, J. J. Dannenberg, S. Dapprich, A. D. Daniels, 
 O. Farkas, J. B. Foresman, J. V. Ortiz, J. Cioslowski, 
 and D. J. Fox, Gaussian, Inc., Wallingford CT, 2013.
 
 ******************************************
 Gaussian 09:  ES64L-G09RevE.01 30-Nov-2015
                21-Feb-2019 
 ******************************************
 %chk=22Cl_4CF3_EtO.M062X_6-31pGd_bsse.chk
 %mem=196608000
 %nproc=4
 Will use up to    4 processors via shared memory.
 ----------------------------------------------------------------------
 # M062X/Gen 6D SCF=Tight INT(grid=ultrafine) Counterpoise=2 maxdisk=67
 1088640
 ----------------------------------------------------------------------
 1/38=1,62=2/1;
 2/12=2,17=6,18=5,40=1/2;
 1/38=1,53=2,62=2,63=1/22;
 3/5=7,8=2,11=2,16=1,25=1,30=1,74=-55,75=-5/1,2,3;
 4//1;
 5/5=2,32=2,38=5/2;
 6/7=2,8=2,9=2,10=2,28=1/1;
 1/53=2,62=2,63=1/22;
 3/5=7,6=11,8=2,11=2,16=1,25=1,30=1,74=-55,75=-5,82=7/1,2,3;
 4//1;
 5/5=2,32=2,38=5/2;
 6/7=2,8=2,9=2,10=2,28=1/1;
 1/53=2,62=2,63=1/22(-4);
 99/5=1,9=1/99;
 --------------------------------
 22Cl_4CF3_EtO.M062X_6-31pGd_bsse
 --------------------------------
 Symbolic Z-matrix:
 Charge = -1 Multiplicity = 1 in supermolecule
 Charge =  0 Multiplicity = 1 in fragment      1.
 Charge = -1 Multiplicity = 1 in fragment      2.
 C(Fragment=1)        -4.348     3.9583   -0.8744 
 C(Fragment=1)        -4.41101   2.59289  -0.61881 
 C(Fragment=1)        -3.23284   1.88152  -0.43824 
 C(Fragment=1)        -1.96016   2.48611  -0.51426 
 C(Fragment=1)        -1.94834   3.8653   -0.82218 
 C(Fragment=1)        -3.11618   4.59807  -0.97693 
 N(Fragment=1)        -0.80632   1.75299  -0.34546 
 C(Fragment=1)         0.15379   2.12435   0.60579 
 N(Fragment=1)         1.25568   1.34711   0.57496 
 O(Fragment=1)        -0.02451   3.05065   1.39551 
 C(Fragment=1)         2.32028   1.54998   1.53043 
 C(Fragment=1)         3.23169   0.32759   1.56662 
 C(Fragment=1)         4.40018   0.52563   2.52949 
 H(Fragment=1)        -0.7494    0.78173  -0.73799 
 H(Fragment=1)         1.38013   0.6224   -0.15812 
 H(Fragment=1)         1.88322   1.7373    2.51941 
 H(Fragment=1)         2.90765   2.44641   1.27421 
 H(Fragment=1)         3.59727   0.11875   0.55444 
 H(Fragment=1)         2.6383   -0.54711   1.85865 
 H(Fragment=1)         5.01612   1.38183   2.22946 
 H(Fragment=1)         5.0475   -0.35712   2.55977 
 H(Fragment=1)         4.04388   0.71616   3.54912 
 H(Fragment=1)        -5.36369   2.08015  -0.54482 
 H(Fragment=1)        -3.05643   5.6551   -1.21316 
 C(Fragment=1)        -5.60563   4.758    -0.99917 
 F(Fragment=1)        -5.48704   5.76526  -1.88815 
 F(Fragment=1)        -6.65546   4.00993  -1.39101 
 F(Fragment=1)        -5.97098   5.33511   0.16792 
 Cl(Fragment=1)       -0.44522   4.67392  -1.13147 
 Cl(Fragment=1)       -3.3387    0.18664  -0.08346 
 O(Fragment=2)         1.72273  -0.70719  -1.26896 
 O(Fragment=2)        -0.51622  -0.74855  -1.46542 
 C(Fragment=2)         0.64032  -1.19866  -1.68062 
 C(Fragment=2)         0.75595  -2.48012  -2.52416 
 C(Fragment=2)        -0.57581  -3.02935  -3.02065 
 H(Fragment=2)         1.2841   -3.22109  -1.91083 
 H(Fragment=2)         1.42775  -2.25421  -3.36157 
 H(Fragment=2)        -1.23716  -3.25476  -2.17913 
 H(Fragment=2)        -0.43413  -3.9429   -3.61171 
 H(Fragment=2)        -1.09188  -2.28907  -3.63882 
 
                          Input orientation:                          
 ---------------------------------------------------------------------
 Center     Atomic      Atomic             Coordinates (Angstroms)
 Number     Number       Type             X           Y           Z
 ---------------------------------------------------------------------
      1          6           0       -4.347999    3.958298   -0.874404
      2          6           0       -4.411010    2.592887   -0.618809
      3          6           0       -3.232842    1.881525   -0.438244
      4          6           0       -1.960155    2.486109   -0.514258
      5          6           0       -1.948345    3.865297   -0.822176
      6          6           0       -3.116184    4.598070   -0.976933
      7          7           0       -0.806316    1.752989   -0.345457
      8          6           0        0.153793    2.124352    0.605789
      9          7           0        1.255677    1.347112    0.574961
     10          8           0       -0.024513    3.050651    1.395506
     11          6           0        2.320283    1.549979    1.530429
     12          6           0        3.231693    0.327593    1.566616
     13          6           0        4.400177    0.525629    2.529494
     14          1           0       -0.749401    0.781727   -0.737990
     15          1           0        1.380128    0.622396   -0.158123
     16          1           0        1.883222    1.737298    2.519413
     17          1           0        2.907652    2.446414    1.274207
     18          1           0        3.597269    0.118752    0.554439
     19          1           0        2.638304   -0.547115    1.858648
     20          1           0        5.016118    1.381831    2.229456
     21          1           0        5.047501   -0.357119    2.559766
     22          1           0        4.043883    0.716157    3.549117
     23          1           0       -5.363691    2.080154   -0.544817
     24          1           0       -3.056433    5.655102   -1.213163
     25          6           0       -5.605628    4.757997   -0.999167
     26          9           0       -5.487044    5.765260   -1.888154
     27          9           0       -6.655464    4.009925   -1.391011
     28          9           0       -5.970981    5.335114    0.167923
     29         17           0       -0.445220    4.673920   -1.131471
     30         17           0       -3.338704    0.186638   -0.083456
     31          8           0        1.722732   -0.707191   -1.268964
     32          8           0       -0.516220   -0.748549   -1.465416
     33          6           0        0.640325   -1.198660   -1.680620
     34          6           0        0.755953   -2.480123   -2.524158
     35          6           0       -0.575806   -3.029349   -3.020649
     36          1           0        1.284096   -3.221092   -1.910832
     37          1           0        1.427752   -2.254213   -3.361567
     38          1           0       -1.237162   -3.254758   -2.179126
     39          1           0       -0.434134   -3.942899   -3.611714
     40          1           0       -1.091882   -2.289071   -3.638822
 ---------------------------------------------------------------------
                    Distance matrix (angstroms):
                    1          2          3          4          5
     1  C    0.000000
     2  C    1.390557   0.000000
     3  C    2.397248   1.388063   0.000000
     4  C    2.828223   2.455406   1.411040   0.000000
     5  C    2.402024   2.779407   2.394304   1.413193   0.000000
     6  C    1.391829   2.413625   2.771897   2.451704   1.387355
     7  N    4.205556   3.711330   2.431699   1.377427   2.448130
     8  C    5.081384   4.749377   3.552220   2.419535   3.080415
     9  N    6.349814   5.923545   4.632385   3.581241   4.308017
    10  O    4.966774   4.848542   3.875935   2.777160   3.046784
    11  C    7.486602   7.142631   5.901084   4.835208   5.395983
    12  C    8.751705   8.265503   6.944378   5.995374   6.712263
    13  C    9.995015   9.582399   8.301139   7.318588   7.917753
    14  H    4.801992   4.086793   2.732560   2.102593   3.309526
    15  H    6.667289   6.134520   4.789924   3.841582   4.694263
    16  H    7.434982   7.085042   5.911231   4.953325   5.511398
    17  H    7.716657   7.560937   6.399786   5.186109   5.476199
    18  H    8.939295   8.463474   7.123427   6.134449   6.832680
    19  H    8.750814   8.104950   6.756061   5.998079   6.906051
    20  H   10.196020   9.922197   8.683989   7.577320   7.998988
    21  H   10.894576  10.405253   9.086456   8.163382   8.843540
    22  H   10.025104   9.611396   8.379014   7.462723   8.058045
    23  H    2.160482   1.084422   2.142739   3.427797   3.863710
    24  H    2.159177   3.400779   3.856360   3.425319   2.141058
    25  C    1.495564   2.501897   3.770787   4.322740   3.768814
    26  F    2.364365   3.582323   4.718799   5.007931   4.155546
    27  F    2.365152   2.764393   4.141521   5.013645   4.743571
    28  F    2.369839   3.251502   4.448834   4.966782   4.395709
    29  Cl   3.976164   4.507883   4.006105   2.731757   1.734623
    30  Cl   3.983679   2.688210   1.734855   2.715429   4.001417
    31  O    7.666566   6.995427   5.652367   4.932585   5.880822
    32  O    6.098052   5.201088   3.918215   3.667787   4.873635
    33  C    7.219943   6.404627   5.102201   4.658371   5.751678
    34  C    8.380053   7.487542   6.267814   6.006696   7.104529
    35  C    8.225753   7.217143   6.151856   6.214394   7.365683
    36  H    9.183590   8.240503   6.971939   6.711760   7.864525
    37  H    8.839716   8.068967   6.882680   6.485039   7.436057
    38  H    7.962901   6.833948   5.778824   6.020968   7.283013
    39  H    9.232558   8.215201   7.199139   7.297611   8.428659
    40  H    7.567954   6.631033   5.676379   5.772274   6.822263
                    6          7          8          9         10
     6  C    0.000000
     7  N    3.718702   0.000000
     8  C    4.395116   1.401638   0.000000
     9  N    5.664828   2.294280   1.348778   0.000000
    10  O    4.193018   2.307834   1.230234   2.283468   0.000000
    11  C    6.718103   3.651819   2.424571   1.444805   2.787165
    12  C    8.062392   4.689700   3.691206   2.434633   4.248200
    13  C    9.239886   6.072835   4.928320   3.792481   5.219152
    14  H    4.497025   1.049128   2.103364   2.462486   3.197700
    15  H    6.057496   2.468577   2.084066   1.038323   3.206744
    16  H    6.738139   3.929547   2.608197   2.080133   2.574396
    17  H    6.781140   4.110682   2.852060   2.103908   2.996232
    18  H    8.214612   4.782479   3.985298   2.644304   4.735054
    19  H    8.223599   4.691904   3.857355   2.673500   4.499890
    20  H    9.314476   6.377199   5.179753   4.108464   5.374793
    21  H   10.183708   6.867317   5.824440   4.606711   6.220428
    22  H    9.317776   6.306121   5.077302   4.125264   5.161372
    23  H    3.402633   4.573451   5.636353   6.753317   5.763119
    24  H    1.084754   4.587203   5.106891   6.352201   4.772930
    25  C    2.494674   5.700071   6.533215   7.822373   6.308591
    26  F    2.795288   6.355112   7.162053   8.429191   6.927537
    27  F    3.611631   6.356059   7.342246   8.575650   7.256335
    28  F    3.162877   6.306262   6.929182   8.264044   6.487388
    29  Cl   2.676506   3.046317   3.142799   4.107629   3.032756
    30  Cl   4.506501   2.989162   4.053064   4.784198   4.623177
    31  O    7.186528   3.647112   3.740842   2.799707   4.926829
    32  O    5.965297   2.756112   3.604492   3.419730   4.781273
    33  C    6.943243   3.547909   4.062855   3.456481   5.287836
    34  C    8.215118   5.010654   5.600031   4.949948   6.823661
    35  C    8.295048   5.484573   6.343816   5.952827   7.534769
    36  H    9.020750   5.617980   6.015375   5.200813   7.209652
    37  H    8.560818   5.490504   6.044395   5.338108   7.271891
    38  H    8.163510   5.350280   6.214928   5.914089   7.348925
    39  H    9.331861   6.576480   7.412457   6.954705   8.611027
    40  H    7.656119   5.221690   6.248738   6.040598   7.415954
                   11         12         13         14         15
    11  C    0.000000
    12  C    1.525190   0.000000
    13  C    2.524556   1.526993   0.000000
    14  H    3.893443   4.622397   6.104112   0.000000
    15  H    2.143714   2.547533   4.043927   2.212809   0.000000
    16  H    1.097361   2.171052   2.793440   4.295869   2.943690
    17  H    1.101929   2.163309   2.737296   4.493791   2.777038
    18  H    2.152130   1.096250   2.170496   4.582952   2.382670
    19  H    2.146315   1.096589   2.169103   4.470447   2.649175
    20  H    2.790061   2.175994   1.096581   6.512071   4.415620
    21  H    3.483429   2.179986   1.095075   6.765814   4.668618
    22  H    2.782294   2.177372   1.096758   6.431109   4.565963
    23  H    7.976916   9.022763  10.353794   4.797385   6.910404
    24  H    7.299891   8.697704   9.793876   5.412760   6.791489
    25  C    8.916854  10.213224  11.422807   6.281869   8.161577
    26  F    9.508400  10.840666  12.030232   6.971638   8.752149
    27  F    9.754496  10.957327  12.236743   6.762343   8.807163
    28  F    9.215678  10.569806  11.673434   6.987053   8.738124
    29  Cl   4.949013   6.299994   7.354513   3.923840   4.549083
    30  Cl   6.040485   6.775893   8.175127   2.736245   4.739498
    31  O    3.645337   3.374649   4.807998   2.934323   1.766110
    32  O    4.722718   4.939448   6.461717   1.710341   2.680417
    33  C    4.548419   4.425966   5.902094   2.596502   2.486272
    34  C    5.926932   5.544996   6.917681   4.012001   3.951371
    35  C    7.076008   6.841718   8.258472   4.445781   5.035372
    36  H    5.973197   5.336566   6.592751   4.640391   4.225353
    37  H    6.260999   5.848667   7.160128   4.565094   4.305717
    38  H    7.035746   6.843573   8.260873   4.313699   5.095781
    39  H    8.012500   7.647907   9.002930   5.538933   6.005061
    40  H    7.287135   7.255123   8.725444   4.238151   5.167469
                   16         17         18         19         20
    16  H    0.000000
    17  H    1.761487   0.000000
    18  H    3.069002   2.532124   0.000000
    19  H    2.495055   3.061916   1.750416   0.000000
    20  H    3.166302   2.547835   2.532624   3.084207   0.000000
    21  H    3.794848   3.753853   2.520112   2.516326   1.770321
    22  H    2.602206   3.075716   3.086172   2.535586   1.769144
    23  H    7.875583   8.476916   9.238738   8.758488  10.766833
    24  H    7.326766   7.214776   8.834441   8.962898   9.761073
    25  C    8.808399   9.109751  10.422552  10.211450  11.603619
    26  F    9.485354   9.564841  10.971512  10.950154  12.103122
    27  F    9.662578  10.049933  11.137529  10.849010  12.499620
    28  F    8.953339   9.402051  10.904643  10.563093  11.857263
    29  Cl   5.232050   4.689437   6.319302   6.760779   7.208321
    30  Cl   6.037217   6.779882   6.965576   6.327305   8.751063
    31  O    4.511439   4.221016   2.742420   3.262799   5.239212
    32  O    5.274052   5.425515   4.663991   4.587047   6.985510
    33  C    5.273037   5.211367   3.933775   4.116169   6.410553
    34  C    6.670456   6.582412   4.930008   5.146723   7.460599
    35  C    7.711033   7.782304   6.332957   6.348191   8.848261
    36  H    6.676201   6.700823   4.752145   4.815912   7.228892
    37  H    7.122187   6.765826   5.066840   5.624079   7.573422
    38  H    7.532177   7.849099   6.498051   6.217249   8.946344
    39  H    8.673264   8.709942   7.078563   7.134150   9.600899
    40  H    7.936419   7.909421   6.735665   6.868106   9.231461
                   21         22         23         24         25
    21  H    0.000000
    22  H    1.771436   0.000000
    23  H   11.134256  10.350036   0.000000
    24  H   10.772908   9.873550   4.307016   0.000000
    25  C   12.341781  11.407735   2.726868   2.710902   0.000000
    26  F   12.970897  12.078739   3.924254   2.524999   1.348680
    27  F   13.101111  12.236414   2.471586   3.961221   1.347335
    28  F   12.630494  11.535369   3.386969   3.241046   1.352274
    29  Cl   8.313036   7.597621   5.591345   2.790667   5.162788
    30  Cl   8.809696   8.244913   2.810486   5.591066   5.184090
    31  O    5.082895   5.534218   7.649253   7.957531   9.145814
    32  O    6.878248   6.934367   5.687446   6.893697   7.512756
    33  C    6.173513   6.526936   6.934615   7.801192   8.657833
    34  C    6.983610   7.609952   7.884413   9.079366   9.756315
    35  C    8.360827   8.861839   7.427019   9.210874   9.488322
    36  H    6.507827   7.275260   8.611752   9.905239  10.581365
    37  H    7.194702   7.963969   8.534900   9.342420  10.208842
    38  H    8.387515   8.744735   6.939776   9.144859   9.202176
    39  H    8.999628   9.645567   8.365618  10.234800  10.453485
    40  H    8.935712   9.331343   6.849186   8.535407   8.775127
                   26         27         28         29         30
    26  F    0.000000
    27  F    2.166462   0.000000
    28  F    2.155614   2.157526   0.000000
    29  Cl   5.213788   6.251031   5.714860   0.000000
    30  Cl   6.244463   5.227631   5.787821   5.441166   0.000000
    31  O    9.708598   9.615625   9.887735   5.803040   5.274703
    32  O    8.204725   7.767814   8.332656   5.433206   3.278842
    33  C    9.278141   8.968934   9.477166   5.997264   4.505846
    34  C   10.361750   9.916343  10.657245   7.386659   5.462129
    35  C   10.136466   9.442952  10.451753   7.932616   5.157837
    36  H   11.251816  10.751485  11.409032   8.119677   6.026790
    37  H   10.690991  10.414456  11.171232   7.515343   6.278763
    38  H    9.975314   9.096964  10.084819   8.036709   4.544394
    39  H   11.079301  10.338467  11.446565   8.966678   6.159400
    40  H    9.341014   8.699624   9.819629   7.428878   4.880366
                   31         32         33         34         35
    31  O    0.000000
    32  O    2.247934   0.000000
    33  C    1.258017   1.259567   0.000000
    34  C    2.377701   2.395351   1.538530   0.000000
    35  C    3.707303   2.761223   2.574116   1.523724   0.000000
    36  H    2.631367   3.090793   2.134870   1.097333   2.174327
    37  H    2.619022   3.105067   2.135373   1.097088   2.175156
    38  H    4.009921   2.703743   2.828604   2.166014   1.093783
    39  H    4.539863   3.849313   3.523412   2.176879   1.097271
    40  H    4.005074   2.725489   2.832683   2.166442   1.093839
                   36         37         38         39         40
    36  H    0.000000
    37  H    1.749322   0.000000
    38  H    2.535716   3.082373   0.000000
    39  H    2.523157   2.526035   1.780646   0.000000
    40  H    3.082188   2.535081   1.756238   1.780032   0.000000
 Stoichiometry    C14H16Cl2F3N2O3(1-)
 Framework group  C1[X(C14H16Cl2F3N2O3)]
 Deg. of freedom   114
 Full point group                 C1      NOp   1
 Largest Abelian subgroup         C1      NOp   1
 Largest concise Abelian subgroup C1      NOp   1
                         Standard orientation:                         
 ---------------------------------------------------------------------
 Center     Atomic      Atomic             Coordinates (Angstroms)
 Number     Number       Type             X           Y           Z
 ---------------------------------------------------------------------
      1          6           0       -3.593142    0.009795   -0.019331
      2          6           0       -2.841274    0.931834   -0.739183
      3          6           0       -1.456376    0.840011   -0.720597
      4          6           0       -0.769663   -0.150768    0.012761
      5          6           0       -1.576861   -1.034325    0.764341
      6          6           0       -2.962660   -0.975750    0.734579
      7          7           0        0.606451   -0.209592    0.025217
      8          6           0        1.283190   -1.386204   -0.324351
      9          7           0        2.620080   -1.291118   -0.173075
     10          8           0        0.698366   -2.381656   -0.749242
     11          6           0        3.478204   -2.391514   -0.547523
     12          6           0        4.919789   -1.910819   -0.677800
     13          6           0        5.866217   -3.058328   -1.023063
     14          1           0        1.161312    0.680535    0.046969
     15          1           0        3.052721   -0.449224    0.253716
     16          1           0        3.123700   -2.815837   -1.495403
     17          1           0        3.420339   -3.201251    0.197612
     18          1           0        5.225649   -1.426715    0.257002
     19          1           0        4.964332   -1.132038   -1.448529
     20          1           0        5.849702   -3.829626   -0.243758
     21          1           0        6.898859   -2.708294   -1.124622
     22          1           0        5.579144   -3.536620   -1.967363
     23          1           0       -3.319285    1.710015   -1.323914
     24          1           0       -3.539972   -1.675794    1.329005
     25          6           0       -5.086906    0.044528   -0.083963
     26          9           0       -5.659527   -0.326419    1.079412
     27          9           0       -5.561631    1.269667   -0.382259
     28          9           0       -5.584700   -0.789940   -1.024446
     29         17           0       -0.843570   -2.167862    1.853513
     30         17           0       -0.541524    1.978759   -1.656557
     31          8           0        3.965359    0.929247    0.875048
     32          8           0        2.140661    2.071109    0.227099
     33          6           0        3.316195    1.987466    0.671657
     34          6           0        4.045637    3.302468    0.996856
     35          6           0        3.216532    4.558226    0.757287
     36          1           0        4.964470    3.316179    0.397108
     37          1           0        4.373646    3.238207    2.041788
     38          1           0        2.897210    4.615371   -0.287285
     39          1           0        3.786009    5.463804    1.001473
     40          1           0        2.307406    4.541925    1.365322
 ---------------------------------------------------------------------
 Rotational constants (GHZ):      0.2813929      0.1017344      0.0840749
 Counterpoise: doing full dimer calculation.
 General basis read from cards:  (6D, 7F)
 There are   496 symmetry adapted cartesian basis functions of A   symmetry.
 There are   496 symmetry adapted basis functions of A   symmetry.
   496 basis functions,   880 primitive gaussians,   496 cartesian basis functions
   100 alpha electrons      100 beta electrons
       nuclear repulsion energy      2459.0837517271 Hartrees.
 NAtoms=   40 NActive=   40 NUniq=   40 SFac= 1.00D+00 NAtFMM=   60 NAOKFM=F Big=F
 Integral buffers will be    131072 words long.
 Raffenetti 2 integral format.
 Two-electron integral symmetry is turned on.
 One-electron integrals computed using PRISM.
 NBasis=   496 RedAO= T EigKep=  1.24D-06  NBF=   496
 NBsUse=   494 1.00D-06 EigRej=  8.30D-07 NBFU=   494
 ExpMin= 4.38D-02 ExpMax= 2.52D+04 ExpMxC= 3.78D+03 IAcc=3 IRadAn=         5 AccDes= 0.00D+00
 Harris functional with IExCor= 1009 and IRadAn=       5 diagonalized for initial guess.
 HarFok:  IExCor= 1009 AccDes= 0.00D+00 IRadAn=         5 IDoV= 1 UseB2=F ITyADJ=14
 ICtDFT=  3500011 ScaDFX=  1.000000  1.000000  1.000000  1.000000
 FoFCou: FMM=F IPFlag=           0 FMFlag=      100000 FMFlg1=           0
         NFxFlg=           0 DoJE=T BraDBF=F KetDBF=T FulRan=T
         wScrn=  0.000000 ICntrl=     500 IOpCl=  0 I1Cent=   200000004 NGrid=           0
         NMat0=    1 NMatS0=      1 NMatT0=    0 NMatD0=    1 NMtDS0=    0 NMtDT0=    0
 Petite list used in FoFCou.
 Requested convergence on RMS density matrix=1.00D-08 within 128 cycles.
 Requested convergence on MAX density matrix=1.00D-06.
 Requested convergence on             energy=1.00D-06.
 No special actions if energy rises.
 SCF Done:  E(RM062X) =  -2097.89629139     A.U. after   16 cycles
            NFock= 16  Conv=0.60D-08     -V/T= 2.0058

 **********************************************************************

            Population analysis using the SCF density.

 **********************************************************************

 Orbital symmetries:
       Occupied  (A) (A) (A) (A) (A) (A) (A) (A) (A) (A) (A) (A)
                 (A) (A) (A) (A) (A) (A) (A) (A) (A) (A) (A) (A)
                 (A) (A) (A) (A) (A) (A) (A) (A) (A) (A) (A) (A)
                 (A) (A) (A) (A) (A) (A) (A) (A) (A) (A) (A) (A)
                 (A) (A) (A) (A) (A) (A) (A) (A) (A) (A) (A) (A)
                 (A) (A) (A) (A) (A) (A) (A) (A) (A) (A) (A) (A)
                 (A) (A) (A) (A) (A) (A) (A) (A) (A) (A) (A) (A)
                 (A) (A) (A) (A) (A) (A) (A) (A) (A) (A) (A) (A)
                 (A) (A) (A) (A)
       Virtual   (A) (A) (A) (A) (A) (A) (A) (A) (A) (A) (A) (A)
                 (A) (A) (A) (A) (A) (A) (A) (A) (A) (A) (A) (A)
                 (A) (A) (A) (A) (A) (A) (A) (A) (A) (A) (A) (A)
                 (A) (A) (A) (A) (A) (A) (A) (A) (A) (A) (A) (A)
                 (A) (A) (A) (A) (A) (A) (A) (A) (A) (A) (A) (A)
                 (A) (A) (A) (A) (A) (A) (A) (A) (A) (A) (A) (A)
                 (A) (A) (A) (A) (A) (A) (A) (A) (A) (A) (A) (A)
                 (A) (A) (A) (A) (A) (A) (A) (A) (A) (A) (A) (A)
                 (A) (A) (A) (A) (A) (A) (A) (A) (A) (A) (A) (A)
                 (A) (A) (A) (A) (A) (A) (A) (A) (A) (A) (A) (A)
                 (A) (A) (A) (A) (A) (A) (A) (A) (A) (A) (A) (A)
                 (A) (A) (A) (A) (A) (A) (A) (A) (A) (A) (A) (A)
                 (A) (A) (A) (A) (A) (A) (A) (A) (A) (A) (A) (A)
                 (A) (A) (A) (A) (A) (A) (A) (A) (A) (A) (A) (A)
                 (A) (A) (A) (A) (A) (A) (A) (A) (A) (A) (A) (A)
                 (A) (A) (A) (A) (A) (A) (A) (A) (A) (A) (A) (A)
                 (A) (A) (A) (A) (A) (A) (A) (A) (A) (A) (A) (A)
                 (A) (A) (A) (A) (A) (A) (A) (A) (A) (A) (A) (A)
                 (A) (A) (A) (A) (A) (A) (A) (A) (A) (A) (A) (A)
                 (A) (A) (A) (A) (A) (A) (A) (A) (A) (A) (A) (A)
                 (A) (A) (A) (A) (A) (A) (A) (A) (A) (A) (A) (A)
                 (A) (A) (A) (A) (A) (A) (A) (A) (A) (A) (A) (A)
                 (A) (A) (A) (A) (A) (A) (A) (A) (A) (A) (A) (A)
                 (A) (A) (A) (A) (A) (A) (A) (A) (A) (A) (A) (A)
                 (A) (A) (A) (A) (A) (A) (A) (A) (A) (A) (A) (A)
                 (A) (A) (A) (A) (A) (A) (A) (A) (A) (A) (A) (A)
                 (A) (A) (A) (A) (A) (A) (A) (A) (A) (A) (A) (A)
                 (A) (A) (A) (A) (A) (A) (A) (A) (A) (A) (A) (A)
                 (A) (A) (A) (A) (A) (A) (A) (A) (A) (A) (A) (A)
                 (A) (A) (A) (A) (A) (A) (A) (A) (A) (A) (A) (A)
                 (A) (A) (A) (A) (A) (A) (A) (A) (A) (A) (A) (A)
                 (A) (A) (A) (A) (A) (A) (A) (A) (A) (A) (A) (A)
                 (A) (A) (A) (A) (A) (A) (A) (A) (A) (A)
 The electronic state is 1-A.
 Alpha  occ. eigenvalues -- -102.57898-102.57828 -25.22744 -25.22610 -25.22101
 Alpha  occ. eigenvalues --  -19.48425 -19.46535 -19.46045 -14.66191 -14.64372
 Alpha  occ. eigenvalues --  -10.73555 -10.55494 -10.53412 -10.53361 -10.52734
 Alpha  occ. eigenvalues --  -10.51194 -10.50167 -10.49392 -10.49321 -10.46677
 Alpha  occ. eigenvalues --  -10.45065 -10.44165 -10.42511 -10.42468  -9.72488
 Alpha  occ. eigenvalues --   -9.72427  -7.44906  -7.44846  -7.44229  -7.44199
 Alpha  occ. eigenvalues --   -7.44168  -7.44141  -1.39016  -1.29954  -1.29355
 Alpha  occ. eigenvalues --   -1.04803  -1.02626  -0.95225  -0.92988  -0.91110
 Alpha  occ. eigenvalues --   -0.88928  -0.88449  -0.85102  -0.78557  -0.77424
 Alpha  occ. eigenvalues --   -0.74702  -0.74530  -0.72390  -0.67728  -0.64103
 Alpha  occ. eigenvalues --   -0.62476  -0.61285  -0.60876  -0.59856  -0.58155
 Alpha  occ. eigenvalues --   -0.56355  -0.55232  -0.52001  -0.50691  -0.49655
 Alpha  occ. eigenvalues --   -0.49513  -0.47514  -0.45707  -0.45339  -0.45013
 Alpha  occ. eigenvalues --   -0.44580  -0.44275  -0.43707  -0.43478  -0.41662
 Alpha  occ. eigenvalues --   -0.41478  -0.41044  -0.40152  -0.39941  -0.39530
 Alpha  occ. eigenvalues --   -0.38489  -0.37476  -0.36829  -0.36037  -0.35301
 Alpha  occ. eigenvalues --   -0.34533  -0.33615  -0.33573  -0.33091  -0.32365
 Alpha  occ. eigenvalues --   -0.30623  -0.30210  -0.29938  -0.29329  -0.28653
 Alpha  occ. eigenvalues --   -0.28286  -0.27908  -0.25094  -0.22424  -0.21344
 Alpha  occ. eigenvalues --   -0.19495  -0.19257  -0.18755  -0.18259  -0.17155
 Alpha virt. eigenvalues --    0.08523   0.08963   0.09515   0.10475   0.10885
 Alpha virt. eigenvalues --    0.10995   0.11796   0.12482   0.12607   0.12789
 Alpha virt. eigenvalues --    0.12935   0.13710   0.14121   0.14402   0.14550
 Alpha virt. eigenvalues --    0.15399   0.16059   0.16198   0.16424   0.16963
 Alpha virt. eigenvalues --    0.17358   0.17566   0.17804   0.18028   0.18430
 Alpha virt. eigenvalues --    0.18861   0.19323   0.19498   0.20010   0.20375
 Alpha virt. eigenvalues --    0.20691   0.20911   0.21094   0.21567   0.21708
 Alpha virt. eigenvalues --    0.22533   0.22714   0.23174   0.23881   0.24128
 Alpha virt. eigenvalues --    0.24701   0.24763   0.25241   0.25405   0.26093
 Alpha virt. eigenvalues --    0.26677   0.26756   0.26943   0.27163   0.27595
 Alpha virt. eigenvalues --    0.28505   0.28603   0.28846   0.29155   0.29478
 Alpha virt. eigenvalues --    0.30248   0.30451   0.31521   0.31856   0.31931
 Alpha virt. eigenvalues --    0.32656   0.33037   0.33539   0.33741   0.34054
 Alpha virt. eigenvalues --    0.34744   0.34803   0.35041   0.35210   0.35420
 Alpha virt. eigenvalues --    0.35680   0.36174   0.36476   0.36599   0.36810
 Alpha virt. eigenvalues --    0.37060   0.37442   0.37854   0.38121   0.38683
 Alpha virt. eigenvalues --    0.38900   0.39486   0.39713   0.39978   0.40154
 Alpha virt. eigenvalues --    0.40245   0.40759   0.41168   0.41707   0.42039
 Alpha virt. eigenvalues --    0.42199   0.42907   0.43003   0.43791   0.44284
 Alpha virt. eigenvalues --    0.44526   0.44963   0.45001   0.45233   0.45511
 Alpha virt. eigenvalues --    0.45892   0.46646   0.46831   0.47218   0.48143
 Alpha virt. eigenvalues --    0.48296   0.48497   0.48936   0.49238   0.49449
 Alpha virt. eigenvalues --    0.50022   0.50156   0.50402   0.51257   0.51819
 Alpha virt. eigenvalues --    0.52427   0.52709   0.53321   0.53873   0.54299
 Alpha virt. eigenvalues --    0.54655   0.55413   0.56593   0.56994   0.57202
 Alpha virt. eigenvalues --    0.57873   0.58386   0.59313   0.60619   0.60920
 Alpha virt. eigenvalues --    0.62374   0.63600   0.64690   0.66990   0.68175
 Alpha virt. eigenvalues --    0.69128   0.70915   0.72269   0.73644   0.75109
 Alpha virt. eigenvalues --    0.77486   0.78029   0.79264   0.79675   0.81277
 Alpha virt. eigenvalues --    0.81818   0.82048   0.83461   0.84018   0.84712
 Alpha virt. eigenvalues --    0.85200   0.85346   0.85552   0.86098   0.86389
 Alpha virt. eigenvalues --    0.87427   0.87843   0.88715   0.89395   0.90185
 Alpha virt. eigenvalues --    0.90810   0.91230   0.91829   0.92473   0.92720
 Alpha virt. eigenvalues --    0.93459   0.94184   0.94716   0.96831   0.97957
 Alpha virt. eigenvalues --    0.98705   0.99374   1.00714   1.01202   1.01932
 Alpha virt. eigenvalues --    1.02416   1.03347   1.03973   1.04465   1.05791
 Alpha virt. eigenvalues --    1.07582   1.07667   1.08002   1.08514   1.09233
 Alpha virt. eigenvalues --    1.10568   1.10604   1.11336   1.11517   1.12599
 Alpha virt. eigenvalues --    1.12761   1.13703   1.14511   1.16180   1.17072
 Alpha virt. eigenvalues --    1.18331   1.18694   1.19625   1.19956   1.21919
 Alpha virt. eigenvalues --    1.22960   1.23420   1.23920   1.25227   1.26526
 Alpha virt. eigenvalues --    1.27465   1.28253   1.28516   1.29077   1.29545
 Alpha virt. eigenvalues --    1.30721   1.31742   1.33265   1.33663   1.34680
 Alpha virt. eigenvalues --    1.35255   1.36485   1.36994   1.37694   1.40454
 Alpha virt. eigenvalues --    1.41133   1.43436   1.46347   1.47047   1.48291
 Alpha virt. eigenvalues --    1.50351   1.50633   1.51423   1.52224   1.53036
 Alpha virt. eigenvalues --    1.53486   1.54798   1.55077   1.56250   1.57366
 Alpha virt. eigenvalues --    1.57656   1.58909   1.59015   1.59633   1.60475
 Alpha virt. eigenvalues --    1.62180   1.62448   1.63371   1.66049   1.66408
 Alpha virt. eigenvalues --    1.66881   1.68212   1.69308   1.70789   1.71526
 Alpha virt. eigenvalues --    1.72201   1.72696   1.73676   1.74393   1.76629
 Alpha virt. eigenvalues --    1.77995   1.79201   1.79363   1.80883   1.81536
 Alpha virt. eigenvalues --    1.82399   1.83317   1.83858   1.84604   1.85020
 Alpha virt. eigenvalues --    1.86792   1.88226   1.90522   1.92387   1.92862
 Alpha virt. eigenvalues --    1.94977   1.96599   1.96806   1.97158   1.98333
 Alpha virt. eigenvalues --    1.98617   1.98850   1.99388   2.00063   2.00864
 Alpha virt. eigenvalues --    2.01712   2.02265   2.03231   2.04414   2.06274
 Alpha virt. eigenvalues --    2.06523   2.07568   2.08362   2.09005   2.10058
 Alpha virt. eigenvalues --    2.11530   2.12337   2.13252   2.13883   2.14375
 Alpha virt. eigenvalues --    2.15925   2.16919   2.18972   2.19698   2.19900
 Alpha virt. eigenvalues --    2.20218   2.21028   2.21681   2.21875   2.22489
 Alpha virt. eigenvalues --    2.23102   2.23680   2.23912   2.24793   2.25821
 Alpha virt. eigenvalues --    2.27610   2.28474   2.30650   2.31174   2.33033
 Alpha virt. eigenvalues --    2.34287   2.37119   2.37877   2.38841   2.39723
 Alpha virt. eigenvalues --    2.41137   2.42566   2.43200   2.47175   2.47932
 Alpha virt. eigenvalues --    2.49089   2.50049   2.51111   2.51893   2.53232
 Alpha virt. eigenvalues --    2.54533   2.55203   2.57582   2.59990   2.62568
 Alpha virt. eigenvalues --    2.65689   2.66537   2.68810   2.70746   2.72001
 Alpha virt. eigenvalues --    2.73320   2.75276   2.76480   2.78270   2.80213
 Alpha virt. eigenvalues --    2.83186   2.84963   2.86305   2.87628   2.89014
 Alpha virt. eigenvalues --    2.90701   2.91280   2.92926   2.93547   2.99774
 Alpha virt. eigenvalues --    3.05054   3.07115   3.08203   3.10164   3.21549
 Alpha virt. eigenvalues --    3.23127   3.25741   3.27810   3.29939   3.32297
 Alpha virt. eigenvalues --    3.35906   3.36765   3.37956   3.43020   3.48746
 Alpha virt. eigenvalues --    4.36382   4.37061   4.37689   4.40032   4.43220
 Alpha virt. eigenvalues --    4.46567   4.49188   4.53030   4.53866   4.54890
 Alpha virt. eigenvalues --    4.56402   4.58227   4.59908   4.62468   4.64712
 Alpha virt. eigenvalues --    4.71626   4.75643   4.77055   4.82456   4.87936
 Alpha virt. eigenvalues --    4.97717   5.80369   6.05206   6.71671
          Condensed to atoms (all electrons):
               1          2          3          4          5          6
     1  C   15.847741  -3.200547  -0.730371   0.621811  -0.685146  -2.729502
     2  C   -3.200547  29.297149  -5.850401  -5.449324   4.430088 -13.620032
     3  C   -0.730371  -5.850401  13.884502  -4.515550  -3.598375   6.193137
     4  C    0.621811  -5.449324  -4.515550  27.389456   0.012373  -6.710709
     5  C   -0.685146   4.430088  -3.598375   0.012373  12.469888  -5.722118
     6  C   -2.729502 -13.620032   6.193137  -6.710709  -5.722118  27.781997
     7  N   -0.068608   0.097915   0.402835  -1.075041  -0.254355   0.242478
     8  C   -0.356186  -0.097639   0.242121  -1.381514  -0.367043   0.365413
     9  N    0.005834   0.028038   0.123671  -0.273354   0.048984   0.063017
    10  O   -0.031286   0.049802  -0.004368  -0.115254   0.055908   0.030193
    11  C   -0.019750  -0.014834   0.000820  -0.431406  -0.092988   0.037629
    12  C   -0.000268  -0.002506   0.007789  -0.026907  -0.001204   0.003291
    13  C   -0.000140  -0.000353  -0.000457   0.001652  -0.002594  -0.000182
    14  H   -0.001379   0.006269  -0.035737   0.051073   0.009262  -0.009163
    15  H   -0.000173   0.000450  -0.000204   0.002483  -0.000995  -0.000242
    16  H   -0.000118   0.000024  -0.002643  -0.008006  -0.001780  -0.000489
    17  H    0.000112  -0.000046   0.001696   0.010590   0.001321   0.000584
    18  H   -0.000012  -0.000004  -0.000166  -0.001919  -0.000075  -0.000001
    19  H    0.000013  -0.000013   0.000033   0.001670  -0.000139   0.000000
    20  H    0.000000   0.000000   0.000003   0.000109  -0.000005  -0.000001
    21  H   -0.000000   0.000000   0.000002  -0.000006   0.000001   0.000000
    22  H   -0.000000  -0.000001  -0.000013  -0.000054  -0.000017  -0.000001
    23  H    0.109577   0.067824   0.055140   0.026056  -0.035001   0.080999
    24  H    0.138510   0.111775  -0.032355   0.003628  -0.006459   0.090312
    25  C   -1.650349   0.137254   0.005318  -0.922935  -0.199032  -0.314746
    26  F   -0.030090  -0.066542   0.004900   0.041585   0.056578  -0.012757
    27  F   -0.055959  -0.012281   0.081832   0.050839  -0.007022  -0.054940
    28  F    0.274571  -0.136460  -0.001937   0.020504  -0.003962  -0.139224
    29  Cl   0.012953   0.127427  -0.123784  -0.281776  -0.113004   0.032948
    30  Cl   0.018313  -0.177900  -0.020028  -0.079291  -0.086100   0.015393
    31  O   -0.000411   0.000350   0.011800  -0.048240   0.006100   0.000745
    32  O   -0.002435  -0.001530  -0.005339   0.077880  -0.023632   0.002180
    33  C   -0.007168   0.029691   0.020301  -0.166228   0.032017   0.003358
    34  C   -0.007243   0.016117  -0.008506  -0.042805   0.018202  -0.003577
    35  C    0.001620   0.001936   0.000177  -0.001093   0.000455   0.000484
    36  H   -0.000003   0.000008  -0.000060  -0.000503  -0.000010  -0.000002
    37  H    0.000007   0.000009   0.000282   0.000071   0.000085   0.000009
    38  H   -0.000007   0.000147   0.000034  -0.000258   0.000083   0.000013
    39  H   -0.000000  -0.000013   0.000115  -0.000173   0.000003   0.000002
    40  H   -0.000004   0.000159  -0.000227  -0.001261  -0.000056   0.000026
               7          8          9         10         11         12
     1  C   -0.068608  -0.356186   0.005834  -0.031286  -0.019750  -0.000268
     2  C    0.097915  -0.097639   0.028038   0.049802  -0.014834  -0.002506
     3  C    0.402835   0.242121   0.123671  -0.004368   0.000820   0.007789
     4  C   -1.075041  -1.381514  -0.273354  -0.115254  -0.431406  -0.026907
     5  C   -0.254355  -0.367043   0.048984   0.055908  -0.092988  -0.001204
     6  C    0.242478   0.365413   0.063017   0.030193   0.037629   0.003291
     7  N    8.185734   0.442870  -0.356830  -0.198002   0.032842   0.021881
     8  C    0.442870   6.644334   0.173502   0.767709  -0.658971   0.132349
     9  N   -0.356830   0.173502   7.818487  -0.159932   0.289565  -0.055064
    10  O   -0.198002   0.767709  -0.159932   8.301406  -0.130341   0.011842
    11  C    0.032842  -0.658971   0.289565  -0.130341   6.765522  -0.414723
    12  C    0.021881   0.132349  -0.055064   0.011842  -0.414723   6.414462
    13  C    0.005214  -0.003321  -0.011077  -0.000207  -0.053498  -0.232429
    14  H    0.089919  -0.030805   0.012010   0.002696   0.003709  -0.001839
    15  H    0.015174  -0.000622   0.136571   0.003045  -0.024962  -0.004730
    16  H    0.005839  -0.060168  -0.052950   0.000387   0.484308  -0.044291
    17  H   -0.005825   0.021352  -0.059283   0.001361   0.407470  -0.059376
    18  H    0.001041  -0.000060   0.009144  -0.000059  -0.102757   0.442320
    19  H   -0.001726   0.000737   0.001043  -0.000082  -0.057911   0.429638
    20  H    0.000018   0.003461  -0.000983   0.000014   0.002760  -0.060390
    21  H    0.000019  -0.000109   0.000385   0.000003   0.031412  -0.133163
    22  H    0.000034  -0.001345   0.001277  -0.000058  -0.023905  -0.073759
    23  H    0.000063   0.001400   0.000003  -0.000013   0.000013   0.000000
    24  H    0.000484   0.002867  -0.000021  -0.000072   0.000066  -0.000002
    25  C    0.015761  -0.112615   0.002966  -0.005789  -0.002782  -0.000038
    26  F   -0.000061  -0.000124  -0.000002  -0.000011  -0.000004   0.000000
    27  F   -0.000084  -0.000212  -0.000001  -0.000000  -0.000003   0.000000
    28  F    0.000055   0.000733   0.000004   0.000012   0.000007  -0.000000
    29  Cl   0.037198  -0.035418   0.009991  -0.041382   0.041037  -0.002562
    30  Cl  -0.001057   0.086032  -0.000613   0.002363   0.008832  -0.000767
    31  O    0.013994   0.013460  -0.046830  -0.000001   0.024482  -0.021165
    32  O   -0.051471  -0.048020   0.024844  -0.001121   0.007133  -0.006585
    33  C    0.022973   0.003970  -0.013254   0.000006   0.026229  -0.009876
    34  C   -0.030399  -0.044212  -0.044348  -0.001049   0.026513  -0.011214
    35  C    0.002133  -0.003569   0.007453   0.000112  -0.002865  -0.000729
    36  H    0.000150   0.000083  -0.000382  -0.000000  -0.000311   0.000852
    37  H   -0.000191  -0.000539  -0.000042  -0.000000   0.000317  -0.000340
    38  H   -0.000232  -0.000122  -0.000023  -0.000000   0.000017  -0.000034
    39  H    0.000045   0.000076  -0.000004   0.000000  -0.000006   0.000003
    40  H    0.000104   0.000288   0.000005  -0.000000  -0.000001   0.000049
              13         14         15         16         17         18
     1  C   -0.000140  -0.001379  -0.000173  -0.000118   0.000112  -0.000012
     2  C   -0.000353   0.006269   0.000450   0.000024  -0.000046  -0.000004
     3  C   -0.000457  -0.035737  -0.000204  -0.002643   0.001696  -0.000166
     4  C    0.001652   0.051073   0.002483  -0.008006   0.010590  -0.001919
     5  C   -0.002594   0.009262  -0.000995  -0.001780   0.001321  -0.000075
     6  C   -0.000182  -0.009163  -0.000242  -0.000489   0.000584  -0.000001
     7  N    0.005214   0.089919   0.015174   0.005839  -0.005825   0.001041
     8  C   -0.003321  -0.030805  -0.000622  -0.060168   0.021352  -0.000060
     9  N   -0.011077   0.012010   0.136571  -0.052950  -0.059283   0.009144
    10  O   -0.000207   0.002696   0.003045   0.000387   0.001361  -0.000059
    11  C   -0.053498   0.003709  -0.024962   0.484308   0.407470  -0.102757
    12  C   -0.232429  -0.001839  -0.004730  -0.044291  -0.059376   0.442320
    13  C    5.900010   0.000058   0.002137  -0.005329  -0.024935  -0.024238
    14  H    0.000058   0.244297   0.006801   0.000007   0.000003   0.000007
    15  H    0.002137   0.006801   0.245759   0.001933   0.000756   0.002344
    16  H   -0.005329   0.000007   0.001933   0.506995  -0.046090   0.003911
    17  H   -0.024935   0.000003   0.000756  -0.046090   0.551034  -0.005207
    18  H   -0.024238   0.000007   0.002344   0.003911  -0.005207   0.466007
    19  H   -0.057604  -0.000001  -0.000502  -0.005669   0.004526  -0.031510
    20  H    0.401657  -0.000000  -0.000010  -0.000220   0.003075  -0.004271
    21  H    0.455139  -0.000000   0.000000  -0.000073  -0.000075  -0.002892
    22  H    0.445433  -0.000000   0.000005   0.002591  -0.000451   0.003723
    23  H    0.000000  -0.000003  -0.000000  -0.000000   0.000000  -0.000000
    24  H   -0.000000   0.000001  -0.000000  -0.000000  -0.000000   0.000000
    25  C   -0.000016  -0.000185  -0.000011  -0.000008   0.000006  -0.000000
    26  F   -0.000000  -0.000000   0.000000   0.000000   0.000000  -0.000000
    27  F   -0.000000  -0.000000  -0.000000  -0.000000   0.000000  -0.000000
    28  F    0.000000   0.000000   0.000000  -0.000000   0.000000  -0.000000
    29  Cl   0.000026   0.002679   0.000664   0.001076  -0.000449   0.000043
    30  Cl   0.000105   0.012319   0.000118   0.000082  -0.000014  -0.000005
    31  O    0.008887  -0.002904   0.082269  -0.000538   0.000510  -0.006380
    32  O   -0.000443   0.101321  -0.001442  -0.000032   0.000045  -0.000134
    33  C   -0.004635  -0.013248  -0.003430   0.001347  -0.000143  -0.000595
    34  C   -0.000161   0.021310   0.019471   0.000020  -0.000030   0.000158
    35  C   -0.000637  -0.003311  -0.003670   0.000015  -0.000002   0.000009
    36  H    0.000211  -0.000026  -0.000007  -0.000000  -0.000000  -0.000001
    37  H   -0.000045  -0.000029   0.000003  -0.000000  -0.000000  -0.000000
    38  H   -0.000003  -0.000018  -0.000000  -0.000000  -0.000000   0.000000
    39  H    0.000000   0.000000   0.000000  -0.000000   0.000000  -0.000000
    40  H    0.000002  -0.000023  -0.000001   0.000000   0.000000   0.000000
              19         20         21         22         23         24
     1  C    0.000013   0.000000  -0.000000  -0.000000   0.109577   0.138510
     2  C   -0.000013   0.000000   0.000000  -0.000001   0.067824   0.111775
     3  C    0.000033   0.000003   0.000002  -0.000013   0.055140  -0.032355
     4  C    0.001670   0.000109  -0.000006  -0.000054   0.026056   0.003628
     5  C   -0.000139  -0.000005   0.000001  -0.000017  -0.035001  -0.006459
     6  C    0.000000  -0.000001   0.000000  -0.000001   0.080999   0.090312
     7  N   -0.001726   0.000018   0.000019   0.000034   0.000063   0.000484
     8  C    0.000737   0.003461  -0.000109  -0.001345   0.001400   0.002867
     9  N    0.001043  -0.000983   0.000385   0.001277   0.000003  -0.000021
    10  O   -0.000082   0.000014   0.000003  -0.000058  -0.000013  -0.000072
    11  C   -0.057911   0.002760   0.031412  -0.023905   0.000013   0.000066
    12  C    0.429638  -0.060390  -0.133163  -0.073759   0.000000  -0.000002
    13  C   -0.057604   0.401657   0.455139   0.445433   0.000000  -0.000000
    14  H   -0.000001  -0.000000  -0.000000  -0.000000  -0.000003   0.000001
    15  H   -0.000502  -0.000010   0.000000   0.000005  -0.000000  -0.000000
    16  H   -0.005669  -0.000220  -0.000073   0.002591  -0.000000  -0.000000
    17  H    0.004526   0.003075  -0.000075  -0.000451   0.000000  -0.000000
    18  H   -0.031510  -0.004271  -0.002892   0.003723  -0.000000   0.000000
    19  H    0.497492   0.003908  -0.003003  -0.004662   0.000000  -0.000000
    20  H    0.003908   0.512000  -0.027513  -0.033414   0.000000   0.000000
    21  H   -0.003003  -0.027513   0.511473  -0.028194  -0.000000  -0.000000
    22  H   -0.004662  -0.033414  -0.028194   0.514471  -0.000000   0.000000
    23  H    0.000000   0.000000  -0.000000  -0.000000   0.458047  -0.000130
    24  H   -0.000000   0.000000  -0.000000   0.000000  -0.000130   0.459004
    25  C    0.000000   0.000000  -0.000000  -0.000000  -0.004360  -0.007736
    26  F    0.000000   0.000000  -0.000000   0.000000   0.000210   0.004025
    27  F    0.000000  -0.000000  -0.000000   0.000000   0.005221   0.000298
    28  F    0.000000   0.000000   0.000000  -0.000000  -0.000076  -0.000607
    29  Cl  -0.000006  -0.000001   0.000000   0.000001   0.000415  -0.004106
    30  Cl   0.000037   0.000000   0.000000  -0.000000  -0.005576   0.000761
    31  O    0.000319   0.000042  -0.000002  -0.000051   0.000000  -0.000000
    32  O    0.000241   0.000001   0.000000  -0.000000   0.000001   0.000001
    33  C   -0.000417  -0.000022  -0.000133  -0.000075  -0.000008   0.000011
    34  C   -0.001112  -0.000049   0.000023  -0.000008  -0.000002   0.000001
    35  C   -0.000059  -0.000001  -0.000000   0.000001  -0.000000   0.000000
    36  H    0.000000  -0.000000   0.000000   0.000000   0.000000   0.000000
    37  H    0.000000   0.000000  -0.000000  -0.000000   0.000000   0.000000
    38  H   -0.000000   0.000000  -0.000000  -0.000000  -0.000000   0.000000
    39  H    0.000000   0.000000   0.000000  -0.000000   0.000000   0.000000
    40  H   -0.000000  -0.000000  -0.000000   0.000000  -0.000000  -0.000000
              25         26         27         28         29         30
     1  C   -1.650349  -0.030090  -0.055959   0.274571   0.012953   0.018313
     2  C    0.137254  -0.066542  -0.012281  -0.136460   0.127427  -0.177900
     3  C    0.005318   0.004900   0.081832  -0.001937  -0.123784  -0.020028
     4  C   -0.922935   0.041585   0.050839   0.020504  -0.281776  -0.079291
     5  C   -0.199032   0.056578  -0.007022  -0.003962  -0.113004  -0.086100
     6  C   -0.314746  -0.012757  -0.054940  -0.139224   0.032948   0.015393
     7  N    0.015761  -0.000061  -0.000084   0.000055   0.037198  -0.001057
     8  C   -0.112615  -0.000124  -0.000212   0.000733  -0.035418   0.086032
     9  N    0.002966  -0.000002  -0.000001   0.000004   0.009991  -0.000613
    10  O   -0.005789  -0.000011  -0.000000   0.000012  -0.041382   0.002363
    11  C   -0.002782  -0.000004  -0.000003   0.000007   0.041037   0.008832
    12  C   -0.000038   0.000000   0.000000  -0.000000  -0.002562  -0.000767
    13  C   -0.000016  -0.000000  -0.000000   0.000000   0.000026   0.000105
    14  H   -0.000185  -0.000000  -0.000000   0.000000   0.002679   0.012319
    15  H   -0.000011   0.000000  -0.000000   0.000000   0.000664   0.000118
    16  H   -0.000008   0.000000  -0.000000  -0.000000   0.001076   0.000082
    17  H    0.000006   0.000000   0.000000   0.000000  -0.000449  -0.000014
    18  H   -0.000000  -0.000000  -0.000000  -0.000000   0.000043  -0.000005
    19  H    0.000000   0.000000   0.000000   0.000000  -0.000006   0.000037
    20  H    0.000000   0.000000  -0.000000   0.000000  -0.000001   0.000000
    21  H   -0.000000  -0.000000  -0.000000   0.000000   0.000000   0.000000
    22  H   -0.000000   0.000000   0.000000  -0.000000   0.000001  -0.000000
    23  H   -0.004360   0.000210   0.005221  -0.000076   0.000415  -0.005576
    24  H   -0.007736   0.004025   0.000298  -0.000607  -0.004106   0.000761
    25  C    7.163040   0.117039   0.101429   0.111993  -0.008017  -0.037527
    26  F    0.117039   9.291493  -0.041361  -0.055022  -0.001645  -0.000215
    27  F    0.101429  -0.041361   9.306837  -0.052109  -0.000128  -0.001507
    28  F    0.111993  -0.055022  -0.052109   9.249051   0.000168   0.000235
    29  Cl  -0.008017  -0.001645  -0.000128   0.000168  17.132855  -0.007095
    30  Cl  -0.037527  -0.000215  -0.001507   0.000235  -0.007095  17.032434
    31  O   -0.000025   0.000000  -0.000000   0.000000  -0.001525  -0.001718
    32  O   -0.000164   0.000000  -0.000001   0.000000   0.003079  -0.026163
    33  C   -0.000694  -0.000002   0.000001   0.000000   0.005857   0.000321
    34  C   -0.000579  -0.000000  -0.000000   0.000000   0.005345  -0.011386
    35  C    0.000266   0.000000   0.000000   0.000000  -0.000102   0.006980
    36  H   -0.000000  -0.000000  -0.000000  -0.000000   0.000002   0.000108
    37  H    0.000000   0.000000   0.000000   0.000000  -0.000002  -0.000106
    38  H    0.000002   0.000000   0.000000   0.000000  -0.000002  -0.000204
    39  H   -0.000000  -0.000000  -0.000000   0.000000  -0.000000  -0.000053
    40  H   -0.000003  -0.000000  -0.000000  -0.000000  -0.000000   0.000424
              31         32         33         34         35         36
     1  C   -0.000411  -0.002435  -0.007168  -0.007243   0.001620  -0.000003
     2  C    0.000350  -0.001530   0.029691   0.016117   0.001936   0.000008
     3  C    0.011800  -0.005339   0.020301  -0.008506   0.000177  -0.000060
     4  C   -0.048240   0.077880  -0.166228  -0.042805  -0.001093  -0.000503
     5  C    0.006100  -0.023632   0.032017   0.018202   0.000455  -0.000010
     6  C    0.000745   0.002180   0.003358  -0.003577   0.000484  -0.000002
     7  N    0.013994  -0.051471   0.022973  -0.030399   0.002133   0.000150
     8  C    0.013460  -0.048020   0.003970  -0.044212  -0.003569   0.000083
     9  N   -0.046830   0.024844  -0.013254  -0.044348   0.007453  -0.000382
    10  O   -0.000001  -0.001121   0.000006  -0.001049   0.000112  -0.000000
    11  C    0.024482   0.007133   0.026229   0.026513  -0.002865  -0.000311
    12  C   -0.021165  -0.006585  -0.009876  -0.011214  -0.000729   0.000852
    13  C    0.008887  -0.000443  -0.004635  -0.000161  -0.000637   0.000211
    14  H   -0.002904   0.101321  -0.013248   0.021310  -0.003311  -0.000026
    15  H    0.082269  -0.001442  -0.003430   0.019471  -0.003670  -0.000007
    16  H   -0.000538  -0.000032   0.001347   0.000020   0.000015  -0.000000
    17  H    0.000510   0.000045  -0.000143  -0.000030  -0.000002  -0.000000
    18  H   -0.006380  -0.000134  -0.000595   0.000158   0.000009  -0.000001
    19  H    0.000319   0.000241  -0.000417  -0.001112  -0.000059   0.000000
    20  H    0.000042   0.000001  -0.000022  -0.000049  -0.000001  -0.000000
    21  H   -0.000002   0.000000  -0.000133   0.000023  -0.000000   0.000000
    22  H   -0.000051  -0.000000  -0.000075  -0.000008   0.000001   0.000000
    23  H    0.000000   0.000001  -0.000008  -0.000002  -0.000000   0.000000
    24  H   -0.000000   0.000001   0.000011   0.000001   0.000000   0.000000
    25  C   -0.000025  -0.000164  -0.000694  -0.000579   0.000266  -0.000000
    26  F    0.000000   0.000000  -0.000002  -0.000000   0.000000  -0.000000
    27  F   -0.000000  -0.000001   0.000001  -0.000000   0.000000  -0.000000
    28  F    0.000000   0.000000   0.000000   0.000000   0.000000  -0.000000
    29  Cl  -0.001525   0.003079   0.005857   0.005345  -0.000102   0.000002
    30  Cl  -0.001718  -0.026163   0.000321  -0.011386   0.006980   0.000108
    31  O    8.522990  -0.172229   0.548088  -0.336247   0.041072  -0.001549
    32  O   -0.172229   8.488750   0.341602  -0.145689   0.063512   0.001021
    33  C    0.548088   0.341602   5.862233  -1.156581   0.005884  -0.088596
    34  C   -0.336247  -0.145689  -1.156581   7.839286  -0.375617   0.454054
    35  C    0.041072   0.063512   0.005884  -0.375617   5.855069  -0.046840
    36  H   -0.001549   0.001021  -0.088596   0.454054  -0.046840   0.507082
    37  H   -0.002146   0.001230  -0.076136   0.444330  -0.048563  -0.030125
    38  H    0.000149  -0.005714  -0.008309  -0.055181   0.422077  -0.003854
    39  H   -0.000222   0.002250   0.038217  -0.084711   0.384152  -0.002069
    40  H    0.000096  -0.005226  -0.011180  -0.049843   0.419068   0.003658
              37         38         39         40
     1  C    0.000007  -0.000007  -0.000000  -0.000004
     2  C    0.000009   0.000147  -0.000013   0.000159
     3  C    0.000282   0.000034   0.000115  -0.000227
     4  C    0.000071  -0.000258  -0.000173  -0.001261
     5  C    0.000085   0.000083   0.000003  -0.000056
     6  C    0.000009   0.000013   0.000002   0.000026
     7  N   -0.000191  -0.000232   0.000045   0.000104
     8  C   -0.000539  -0.000122   0.000076   0.000288
     9  N   -0.000042  -0.000023  -0.000004   0.000005
    10  O   -0.000000  -0.000000   0.000000  -0.000000
    11  C    0.000317   0.000017  -0.000006  -0.000001
    12  C   -0.000340  -0.000034   0.000003   0.000049
    13  C   -0.000045  -0.000003   0.000000   0.000002
    14  H   -0.000029  -0.000018   0.000000  -0.000023
    15  H    0.000003  -0.000000   0.000000  -0.000001
    16  H   -0.000000  -0.000000  -0.000000   0.000000
    17  H   -0.000000  -0.000000   0.000000   0.000000
    18  H   -0.000000   0.000000  -0.000000   0.000000
    19  H    0.000000  -0.000000   0.000000  -0.000000
    20  H    0.000000   0.000000   0.000000  -0.000000
    21  H   -0.000000  -0.000000   0.000000  -0.000000
    22  H   -0.000000  -0.000000  -0.000000   0.000000
    23  H    0.000000  -0.000000   0.000000  -0.000000
    24  H    0.000000   0.000000   0.000000  -0.000000
    25  C    0.000000   0.000002  -0.000000  -0.000003
    26  F    0.000000   0.000000  -0.000000  -0.000000
    27  F    0.000000   0.000000  -0.000000  -0.000000
    28  F    0.000000   0.000000   0.000000  -0.000000
    29  Cl  -0.000002  -0.000002  -0.000000  -0.000000
    30  Cl  -0.000106  -0.000204  -0.000053   0.000424
    31  O   -0.002146   0.000149  -0.000222   0.000096
    32  O    0.001230  -0.005714   0.002250  -0.005226
    33  C   -0.076136  -0.008309   0.038217  -0.011180
    34  C    0.444330  -0.055181  -0.084711  -0.049843
    35  C   -0.048563   0.422077   0.384152   0.419068
    36  H   -0.030125  -0.003854  -0.002069   0.003658
    37  H    0.506048   0.003681  -0.002012  -0.003935
    38  H    0.003681   0.487505  -0.030338  -0.026416
    39  H   -0.002012  -0.030338   0.555132  -0.030280
    40  H   -0.003935  -0.026416  -0.030280   0.487906
 Mulliken charges:
               1
     1  C   -1.453904
     2  C    0.227994
     3  C   -0.105989
     4  C   -0.778172
     5  C    0.059766
     6  C    0.373477
     7  N   -0.592892
     8  C    0.299858
     9  N   -0.681802
    10  O   -0.537829
    11  C   -0.158666
    12  C   -0.300515
    13  C   -0.798224
    14  H    0.534931
    15  H    0.521018
    16  H    0.219866
    17  H    0.197485
    18  H    0.251582
    19  H    0.224762
    20  H    0.199832
    21  H    0.196705
    22  H    0.198472
    23  H    0.240198
    24  H    0.239744
    25  C    1.612534
    26  F   -0.307995
    27  F   -0.320851
    28  F   -0.267937
    29  Cl   0.207238
    30  Cl   0.272467
    31  O   -0.633169
    32  O   -0.617722
    33  C    0.618623
    34  C   -0.434281
    35  C   -0.725419
    36  H    0.207110
    37  H    0.208137
    38  H    0.217008
    39  H    0.169889
    40  H    0.216672
 Sum of Mulliken charges =  -1.00000
 Mulliken charges with hydrogens summed into heavy atoms:
               1
     1  C   -1.453904
     2  C    0.468192
     3  C   -0.105989
     4  C   -0.778172
     5  C    0.059766
     6  C    0.613221
     7  N   -0.057961
     8  C    0.299858
     9  N   -0.160784
    10  O   -0.537829
    11  C    0.258685
    12  C    0.175828
    13  C   -0.203216
    25  C    1.612534
    26  F   -0.307995
    27  F   -0.320851
    28  F   -0.267937
    29  Cl   0.207238
    30  Cl   0.272467
    31  O   -0.633169
    32  O   -0.617722
    33  C    0.618623
    34  C   -0.019034
    35  C   -0.121849
         Mulliken charges condensed to fragments:
      1     -0.226850
      2     -0.773150
 Electronic spatial extent (au):  <R**2>=          12468.5154
 Charge=             -1.0000 electrons
 Dipole moment (field-independent basis, Debye):
    X=             -4.3659    Y=             -0.2127    Z=             -0.4051  Tot=              4.3898
 Quadrupole moment (field-independent basis, Debye-Ang):
   XX=           -212.2745   YY=           -182.5706   ZZ=           -163.7041
   XY=             -8.4375   XZ=             -6.5487   YZ=             -5.3817
 Traceless Quadrupole moment (field-independent basis, Debye-Ang):
   XX=            -26.0914   YY=              3.6125   ZZ=             22.4790
   XY=             -8.4375   XZ=             -6.5487   YZ=             -5.3817
 Octapole moment (field-independent basis, Debye-Ang**2):
  XXX=            -69.8805  YYY=             -8.4584  ZZZ=             -3.5420  XYY=            -64.6009
  XXY=            -24.6059  XXZ=            -23.4505  XZZ=            -30.0161  YZZ=              4.4908
  YYZ=              7.8572  XYZ=             -7.7498
 Hexadecapole moment (field-independent basis, Debye-Ang**3):
 XXXX=         -12610.7569 YYYY=          -4322.4269 ZZZZ=          -1065.4521 XXXY=            -17.7800
 XXXZ=           -112.1450 YYYX=            -48.9684 YYYZ=           -100.9231 ZZZX=             14.7569
 ZZZY=            -31.5343 XXYY=          -2639.4003 XXZZ=          -2072.1656 YYZZ=           -842.6682
 XXYZ=            -92.8245 YYXZ=              7.5614 ZZXY=             -5.0881
 N-N= 2.459083751727D+03 E-N=-9.885972854288D+03  KE= 2.085855309298D+03
 CPIOFr:  IOpCl= 0 IRwI=-1 IRwCP=  731 ICalc= -1 LCPTot=      382476 Len1MO=      992706 IndFrg=      382476
 CPIOFr:  IOpCl= 0 IRwI=-1 IRwCP=  731 ICalc=  0 LCPTot=      382476 Len1MO=      992706 IndFrg=     1375182
 Counterpoise: doing DCBS calculation for fragment   1 NewBq=T
 Basis read from rwf:  (6D, 7F)
 There are   496 symmetry adapted cartesian basis functions of A   symmetry.
 There are   496 symmetry adapted basis functions of A   symmetry.
   496 basis functions,   880 primitive gaussians,   496 cartesian basis functions
    80 alpha electrons       80 beta electrons
       nuclear repulsion energy      1720.6356108235 Hartrees.
 NAtoms=   40 NActive=   40 NUniq=   40 SFac= 1.00D+00 NAtFMM=   60 NAOKFM=F Big=F
 Integral buffers will be    131072 words long.
 Raffenetti 2 integral format.
 Two-electron integral symmetry is turned on.
 One-electron integrals computed using PRISM.
 NBasis=   496 RedAO= T EigKep=  1.24D-06  NBF=   496
 NBsUse=   494 1.00D-06 EigRej=  8.30D-07 NBFU=   494
 ExpMin= 4.38D-02 ExpMax= 2.52D+04 ExpMxC= 3.78D+03 IAcc=3 IRadAn=         5 AccDes= 0.00D+00
 Harris functional with IExCor= 1009 and IRadAn=       5 diagonalized for initial guess.
 HarFok:  IExCor= 1009 AccDes= 0.00D+00 IRadAn=         5 IDoV= 1 UseB2=F ITyADJ=14
 ICtDFT=  3500011 ScaDFX=  1.000000  1.000000  1.000000  1.000000
 FoFCou: FMM=F IPFlag=           0 FMFlag=      100000 FMFlg1=           0
         NFxFlg=           0 DoJE=T BraDBF=F KetDBF=T FulRan=T
         wScrn=  0.000000 ICntrl=     500 IOpCl=  0 I1Cent=   200000004 NGrid=           0
         NMat0=    1 NMatS0=      1 NMatT0=    0 NMatD0=    1 NMtDS0=    0 NMtDT0=    0
 Petite list used in FoFCou.
 Requested convergence on RMS density matrix=1.00D-08 within 128 cycles.
 Requested convergence on MAX density matrix=1.00D-06.
 Requested convergence on             energy=1.00D-06.
 No special actions if energy rises.
 SCF Done:  E(RM062X) =  -1830.09619074     A.U. after   15 cycles
            NFock= 15  Conv=0.66D-08     -V/T= 2.0054

 **********************************************************************

            Population analysis using the SCF density.

 **********************************************************************

 Orbital symmetries:
       Occupied  (A) (A) (A) (A) (A) (A) (A) (A) (A) (A) (A) (A)
                 (A) (A) (A) (A) (A) (A) (A) (A) (A) (A) (A) (A)
                 (A) (A) (A) (A) (A) (A) (A) (A) (A) (A) (A) (A)
                 (A) (A) (A) (A) (A) (A) (A) (A) (A) (A) (A) (A)
                 (A) (A) (A) (A) (A) (A) (A) (A) (A) (A) (A) (A)
                 (A) (A) (A) (A) (A) (A) (A) (A) (A) (A) (A) (A)
                 (A) (A) (A) (A) (A) (A) (A) (A)
       Virtual   (A) (A) (A) (A) (A) (A) (A) (A) (A) (A) (A) (A)
                 (A) (A) (A) (A) (A) (A) (A) (A) (A) (A) (A) (A)
                 (A) (A) (A) (A) (A) (A) (A) (A) (A) (A) (A) (A)
                 (A) (A) (A) (A) (A) (A) (A) (A) (A) (A) (A) (A)
                 (A) (A) (A) (A) (A) (A) (A) (A) (A) (A) (A) (A)
                 (A) (A) (A) (A) (A) (A) (A) (A) (A) (A) (A) (A)
                 (A) (A) (A) (A) (A) (A) (A) (A) (A) (A) (A) (A)
                 (A) (A) (A) (A) (A) (A) (A) (A) (A) (A) (A) (A)
                 (A) (A) (A) (A) (A) (A) (A) (A) (A) (A) (A) (A)
                 (A) (A) (A) (A) (A) (A) (A) (A) (A) (A) (A) (A)
                 (A) (A) (A) (A) (A) (A) (A) (A) (A) (A) (A) (A)
                 (A) (A) (A) (A) (A) (A) (A) (A) (A) (A) (A) (A)
                 (A) (A) (A) (A) (A) (A) (A) (A) (A) (A) (A) (A)
                 (A) (A) (A) (A) (A) (A) (A) (A) (A) (A) (A) (A)
                 (A) (A) (A) (A) (A) (A) (A) (A) (A) (A) (A) (A)
                 (A) (A) (A) (A) (A) (A) (A) (A) (A) (A) (A) (A)
                 (A) (A) (A) (A) (A) (A) (A) (A) (A) (A) (A) (A)
                 (A) (A) (A) (A) (A) (A) (A) (A) (A) (A) (A) (A)
                 (A) (A) (A) (A) (A) (A) (A) (A) (A) (A) (A) (A)
                 (A) (A) (A) (A) (A) (A) (A) (A) (A) (A) (A) (A)
                 (A) (A) (A) (A) (A) (A) (A) (A) (A) (A) (A) (A)
                 (A) (A) (A) (A) (A) (A) (A) (A) (A) (A) (A) (A)
                 (A) (A) (A) (A) (A) (A) (A) (A) (A) (A) (A) (A)
                 (A) (A) (A) (A) (A) (A) (A) (A) (A) (A) (A) (A)
                 (A) (A) (A) (A) (A) (A) (A) (A) (A) (A) (A) (A)
                 (A) (A) (A) (A) (A) (A) (A) (A) (A) (A) (A) (A)
                 (A) (A) (A) (A) (A) (A) (A) (A) (A) (A) (A) (A)
                 (A) (A) (A) (A) (A) (A) (A) (A) (A) (A) (A) (A)
                 (A) (A) (A) (A) (A) (A) (A) (A) (A) (A) (A) (A)
                 (A) (A) (A) (A) (A) (A) (A) (A) (A) (A) (A) (A)
                 (A) (A) (A) (A) (A) (A) (A) (A) (A) (A) (A) (A)
                 (A) (A) (A) (A) (A) (A) (A) (A) (A) (A) (A) (A)
                 (A) (A) (A) (A) (A) (A) (A) (A) (A) (A) (A) (A)
                 (A) (A) (A) (A) (A) (A) (A) (A) (A) (A) (A) (A)
                 (A) (A) (A) (A) (A) (A)
 The electronic state is 1-A.
 Alpha  occ. eigenvalues -- -102.69906-102.68318 -25.30793 -25.30629 -25.30133
 Alpha  occ. eigenvalues --  -19.62033 -14.81991 -14.80617 -10.82115 -10.69747
 Alpha  occ. eigenvalues --  -10.64757 -10.64464 -10.64386 -10.60558 -10.59830
 Alpha  occ. eigenvalues --  -10.59585 -10.59367 -10.56647 -10.55283  -9.84522
 Alpha  occ. eigenvalues --   -9.82920  -7.56928  -7.56264  -7.56245  -7.55342
 Alpha  occ. eigenvalues --   -7.54654  -7.54627  -1.47059  -1.37969  -1.37349
 Alpha  occ. eigenvalues --   -1.18624  -1.08259  -1.05410  -1.01559  -0.99704
 Alpha  occ. eigenvalues --   -0.95858  -0.90419  -0.88328  -0.85306  -0.82667
 Alpha  occ. eigenvalues --   -0.79213  -0.74403  -0.72598  -0.70562  -0.69836
 Alpha  occ. eigenvalues --   -0.69299  -0.68786  -0.66068  -0.65264  -0.63686
 Alpha  occ. eigenvalues --   -0.59395  -0.57690  -0.57307  -0.56862  -0.56131
 Alpha  occ. eigenvalues --   -0.54633  -0.53595  -0.53375  -0.53142  -0.52283
 Alpha  occ. eigenvalues --   -0.51794  -0.51633  -0.51330  -0.49904  -0.48600
 Alpha  occ. eigenvalues --   -0.47164  -0.47055  -0.45723  -0.44975  -0.44341
 Alpha  occ. eigenvalues --   -0.42212  -0.41463  -0.40688  -0.40652  -0.38875
 Alpha  occ. eigenvalues --   -0.37715  -0.35657  -0.33281  -0.31945  -0.30579
 Alpha virt. eigenvalues --   -0.02662  -0.01780  -0.01453   0.01081   0.01668
 Alpha virt. eigenvalues --    0.02063   0.02357   0.03031   0.03638   0.03705
 Alpha virt. eigenvalues --    0.04391   0.04738   0.05096   0.05275   0.05463
 Alpha virt. eigenvalues --    0.05887   0.06052   0.06684   0.07322   0.07814
 Alpha virt. eigenvalues --    0.08033   0.08283   0.08477   0.08919   0.09106
 Alpha virt. eigenvalues --    0.09309   0.09625   0.09994   0.10327   0.10549
 Alpha virt. eigenvalues --    0.11136   0.11251   0.11557   0.12182   0.12756
 Alpha virt. eigenvalues --    0.13123   0.13421   0.13868   0.13956   0.14665
 Alpha virt. eigenvalues --    0.14922   0.15047   0.15579   0.15749   0.16192
 Alpha virt. eigenvalues --    0.16898   0.17089   0.17690   0.17832   0.18159
 Alpha virt. eigenvalues --    0.18381   0.18596   0.19092   0.19236   0.19467
 Alpha virt. eigenvalues --    0.19785   0.20400   0.20506   0.20782   0.21173
 Alpha virt. eigenvalues --    0.21365   0.21584   0.22607   0.22747   0.23162
 Alpha virt. eigenvalues --    0.23573   0.23943   0.24281   0.24576   0.24825
 Alpha virt. eigenvalues --    0.25430   0.25809   0.25964   0.26511   0.26597
 Alpha virt. eigenvalues --    0.27176   0.27204   0.27698   0.28063   0.28207
 Alpha virt. eigenvalues --    0.28451   0.28885   0.29256   0.29614   0.30382
 Alpha virt. eigenvalues --    0.30872   0.31281   0.31488   0.31600   0.31692
 Alpha virt. eigenvalues --    0.32069   0.32340   0.32523   0.33111   0.33471
 Alpha virt. eigenvalues --    0.34234   0.34696   0.35375   0.35567   0.36173
 Alpha virt. eigenvalues --    0.36445   0.37267   0.37423   0.37922   0.38384
 Alpha virt. eigenvalues --    0.38574   0.38675   0.38854   0.39875   0.40081
 Alpha virt. eigenvalues --    0.40368   0.41057   0.41486   0.41805   0.42692
 Alpha virt. eigenvalues --    0.43431   0.43653   0.44274   0.45347   0.45641
 Alpha virt. eigenvalues --    0.46069   0.46981   0.47678   0.48039   0.48793
 Alpha virt. eigenvalues --    0.49535   0.50478   0.51114   0.51638   0.53053
 Alpha virt. eigenvalues --    0.53173   0.56671   0.57179   0.57680   0.59299
 Alpha virt. eigenvalues --    0.60165   0.61954   0.62908   0.63289   0.64544
 Alpha virt. eigenvalues --    0.66332   0.66912   0.67894   0.68051   0.68713
 Alpha virt. eigenvalues --    0.69455   0.70230   0.71001   0.71904   0.72241
 Alpha virt. eigenvalues --    0.73259   0.73507   0.74530   0.74739   0.75072
 Alpha virt. eigenvalues --    0.75181   0.75632   0.76263   0.76657   0.77198
 Alpha virt. eigenvalues --    0.78274   0.78912   0.79356   0.79724   0.80985
 Alpha virt. eigenvalues --    0.81586   0.82376   0.83072   0.84387   0.84581
 Alpha virt. eigenvalues --    0.85482   0.86685   0.87176   0.87545   0.88870
 Alpha virt. eigenvalues --    0.89341   0.90253   0.90784   0.91623   0.92531
 Alpha virt. eigenvalues --    0.93473   0.94182   0.94467   0.95288   0.96128
 Alpha virt. eigenvalues --    0.97316   0.97516   0.98148   0.98441   0.99849
 Alpha virt. eigenvalues --    1.00609   1.00920   1.01698   1.02871   1.03702
 Alpha virt. eigenvalues --    1.05051   1.05497   1.05966   1.07442   1.08657
 Alpha virt. eigenvalues --    1.09745   1.10810   1.11877   1.13291   1.13852
 Alpha virt. eigenvalues --    1.15640   1.16697   1.17720   1.18092   1.18837
 Alpha virt. eigenvalues --    1.19548   1.19939   1.21346   1.22231   1.23053
 Alpha virt. eigenvalues --    1.24067   1.25945   1.26685   1.27269   1.29757
 Alpha virt. eigenvalues --    1.31008   1.32539   1.36703   1.37970   1.38826
 Alpha virt. eigenvalues --    1.40995   1.41571   1.43173   1.43834   1.45958
 Alpha virt. eigenvalues --    1.46294   1.47893   1.48119   1.49364   1.49782
 Alpha virt. eigenvalues --    1.50251   1.52312   1.54059   1.54909   1.57733
 Alpha virt. eigenvalues --    1.58781   1.59402   1.61698   1.62417   1.65607
 Alpha virt. eigenvalues --    1.67487   1.67842   1.71531   1.72111   1.73546
 Alpha virt. eigenvalues --    1.74051   1.74720   1.75898   1.76560   1.77096
 Alpha virt. eigenvalues --    1.77586   1.80238   1.83275   1.84064   1.84676
 Alpha virt. eigenvalues --    1.85691   1.86990   1.88530   1.88852   1.89286
 Alpha virt. eigenvalues --    1.89833   1.90867   1.91958   1.92578   1.92703
 Alpha virt. eigenvalues --    1.93408   1.94821   1.96319   1.97495   1.99820
 Alpha virt. eigenvalues --    2.01261   2.02282   2.02695   2.03396   2.04077
 Alpha virt. eigenvalues --    2.05066   2.05462   2.07172   2.08868   2.10833
 Alpha virt. eigenvalues --    2.11233   2.11656   2.12079   2.13303   2.13895
 Alpha virt. eigenvalues --    2.14136   2.14764   2.15420   2.16777   2.17547
 Alpha virt. eigenvalues --    2.18804   2.19809   2.20222   2.20812   2.21363
 Alpha virt. eigenvalues --    2.23028   2.26366   2.28277   2.29084   2.30324
 Alpha virt. eigenvalues --    2.31071   2.33472   2.35045   2.37602   2.38084
 Alpha virt. eigenvalues --    2.38232   2.39269   2.40257   2.41716   2.42697
 Alpha virt. eigenvalues --    2.46254   2.46676   2.49295   2.50462   2.54218
 Alpha virt. eigenvalues --    2.56586   2.59384   2.60383   2.61540   2.61981
 Alpha virt. eigenvalues --    2.63149   2.63460   2.65099   2.65363   2.67989
 Alpha virt. eigenvalues --    2.69350   2.70773   2.71965   2.73279   2.75319
 Alpha virt. eigenvalues --    2.76555   2.77280   2.78594   2.79511   2.80636
 Alpha virt. eigenvalues --    2.81742   2.82310   2.82807   2.85309   2.87815
 Alpha virt. eigenvalues --    2.89134   2.92434   2.95550   2.96368   2.97481
 Alpha virt. eigenvalues --    2.99713   3.03615   3.06844   3.10135   3.12560
 Alpha virt. eigenvalues --    3.13784   3.16517   3.21199   3.21746   3.23931
 Alpha virt. eigenvalues --    3.24419   3.25634   3.28435   3.30859   3.32369
 Alpha virt. eigenvalues --    3.33548   3.36875   3.51212   3.55911   3.64224
 Alpha virt. eigenvalues --    3.69789   3.76138   3.77839   3.84554   3.87000
 Alpha virt. eigenvalues --    4.00380   4.15327   4.24682   4.26414   4.26775
 Alpha virt. eigenvalues --    4.28713   4.31062   4.35273   4.38258   4.41231
 Alpha virt. eigenvalues --    4.42267   4.44440   4.46346   4.47166   4.48297
 Alpha virt. eigenvalues --    4.51813   4.55645   4.59565   4.61418   4.64389
 Alpha virt. eigenvalues --    4.72452   4.77326   4.79065   4.82279   5.18689
 Alpha virt. eigenvalues --    5.26821   5.29355   5.57463   5.66373   5.72804
 Alpha virt. eigenvalues --    5.97499   6.47513   6.49477   6.63976  23.84825
 Alpha virt. eigenvalues --   24.02399  24.26093  38.20211  38.75298
          Condensed to atoms (all electrons):
               1          2          3          4          5          6
     1  C   15.353384  -3.131298  -0.894715   0.679352  -1.084382  -2.092095
     2  C   -3.131298  27.277569  -4.195670  -5.553433   3.258026 -12.384915
     3  C   -0.894715  -4.195670  11.928827  -3.466659  -2.570018   4.821714
     4  C    0.679352  -5.553433  -3.466659  24.464781  -0.041678  -5.441432
     5  C   -1.084382   3.258026  -2.570018  -0.041678  11.262631  -4.242974
     6  C   -2.092095 -12.384915   4.821714  -5.441432  -4.242974  25.002944
     7  N   -0.082414   0.141081   0.409893  -1.048110  -0.187452   0.209214
     8  C   -0.333420  -0.034921   0.052405  -1.041989  -0.227675   0.222254
     9  N    0.006966   0.025886   0.079475  -0.152721   0.063546   0.036880
    10  O   -0.021613   0.031471  -0.025048  -0.040407   0.005661   0.027659
    11  C   -0.015303  -0.005727  -0.022309  -0.291403  -0.062421   0.011574
    12  C    0.000065  -0.001882   0.009847  -0.017650  -0.001047   0.004261
    13  C   -0.000034  -0.000319  -0.000502   0.003672  -0.002145  -0.000241
    14  H   -0.000927  -0.006423  -0.025772   0.027833  -0.005380  -0.003626
    15  H    0.000216  -0.000461  -0.004139   0.019663  -0.005453  -0.001288
    16  H   -0.000144   0.000205  -0.000280  -0.010415   0.000470  -0.000353
    17  H    0.000114  -0.000068   0.000705   0.009751  -0.000792   0.000620
    18  H   -0.000014   0.000003   0.000094  -0.002555   0.000136   0.000015
    19  H    0.000015  -0.000010  -0.000188   0.002640  -0.000230  -0.000015
    20  H    0.000000   0.000000   0.000000   0.000157  -0.000006  -0.000001
    21  H   -0.000000   0.000000   0.000002  -0.000021   0.000001   0.000000
    22  H   -0.000000  -0.000000  -0.000006  -0.000084  -0.000010  -0.000000
    23  H    0.128477   0.050989   0.041197   0.037974  -0.029346   0.074708
    24  H    0.144571   0.107097  -0.029245   0.000805  -0.016043   0.097361
    25  C   -1.418095   0.373140  -0.102529  -0.665461   0.010295  -0.730325
    26  F   -0.022378  -0.067231   0.006763   0.047556   0.057103  -0.013390
    27  F   -0.061181   0.005456   0.081117   0.049822  -0.007215  -0.057874
    28  F    0.322572  -0.143519  -0.004453   0.027883  -0.000406  -0.153809
    29  Cl   0.019974   0.136098  -0.050989  -0.458086  -0.121635   0.128213
    30  Cl  -0.013319  -0.196072  -0.004417  -0.130338  -0.133531   0.041927
    31  O    0.000025  -0.000981  -0.001522   0.011937  -0.002872  -0.000513
    32  O   -0.001051  -0.017198  -0.001410   0.027576  -0.023994   0.004909
    33  C   -0.004588   0.015207   0.018863  -0.106171   0.018127   0.007516
    34  C   -0.002505   0.010874   0.005305  -0.063551   0.013285  -0.000351
    35  C    0.000609  -0.000135   0.003331  -0.001732   0.000274   0.000452
    36  H    0.000000   0.000000   0.000010  -0.000013   0.000002   0.000000
    37  H    0.000000   0.000001   0.000008  -0.000024   0.000003   0.000001
    38  H   -0.000003  -0.000003  -0.000042  -0.000008  -0.000002   0.000000
    39  H    0.000000   0.000000   0.000002  -0.000009   0.000000   0.000000
    40  H   -0.000003  -0.000016  -0.000052   0.000069  -0.000014  -0.000002
               7          8          9         10         11         12
     1  C   -0.082414  -0.333420   0.006966  -0.021613  -0.015303   0.000065
     2  C    0.141081  -0.034921   0.025886   0.031471  -0.005727  -0.001882
     3  C    0.409893   0.052405   0.079475  -0.025048  -0.022309   0.009847
     4  C   -1.048110  -1.041989  -0.152721  -0.040407  -0.291403  -0.017650
     5  C   -0.187452  -0.227675   0.063546   0.005661  -0.062421  -0.001047
     6  C    0.209214   0.222254   0.036880   0.027659   0.011574   0.004261
     7  N    8.012244   0.367436  -0.424791  -0.184633   0.048375   0.002651
     8  C    0.367436   6.317461   0.046853   0.754905  -0.497545   0.091634
     9  N   -0.424791   0.046853   7.692008  -0.137096   0.294651  -0.057507
    10  O   -0.184633   0.754905  -0.137096   8.173283  -0.095690   0.008942
    11  C    0.048375  -0.497545   0.294651  -0.095690   6.382886  -0.241450
    12  C    0.002651   0.091634  -0.057507   0.008942  -0.241450   6.077680
    13  C    0.005224   0.013684   0.000138   0.000642  -0.107116  -0.025832
    14  H    0.173697  -0.010723   0.027482   0.002390   0.006533  -0.000380
    15  H    0.028052   0.013421   0.206889   0.002046  -0.052796  -0.003900
    16  H    0.007150  -0.025894  -0.050403  -0.000379   0.449303  -0.046494
    17  H   -0.005582   0.002991  -0.043930  -0.002315   0.411254  -0.061876
    18  H    0.001744   0.007286   0.008547  -0.000051  -0.098125   0.411365
    19  H   -0.001815   0.001629   0.001892  -0.000226  -0.071057   0.400046
    20  H    0.000021   0.006545  -0.000697  -0.000005  -0.001990  -0.066732
    21  H    0.000019  -0.000835   0.000666   0.000005   0.024910  -0.099020
    22  H    0.000037  -0.001221   0.001621  -0.000044  -0.017328  -0.071165
[...]
    18  H   -0.039288  -0.004679  -0.002821   0.003889  -0.000000  -0.000000
    19  H    0.501392   0.003790  -0.002682  -0.004681   0.000000  -0.000000
    20  H    0.003790   0.490941  -0.025121  -0.030228   0.000000   0.000000
    21  H   -0.002682  -0.025121   0.485558  -0.024982  -0.000000  -0.000000
    22  H   -0.004681  -0.030228  -0.024982   0.489077  -0.000000  -0.000000
    23  H    0.000000   0.000000  -0.000000  -0.000000   0.433848  -0.000119
    24  H   -0.000000   0.000000  -0.000000  -0.000000  -0.000119   0.432411
    25  C    0.000000   0.000000  -0.000000  -0.000000   0.007090   0.000278
    26  F    0.000000  -0.000000  -0.000000   0.000000   0.000232   0.003925
    27  F    0.000000  -0.000000  -0.000000   0.000000   0.005209   0.000292
    28  F    0.000000   0.000000  -0.000000  -0.000000   0.000022  -0.000445
    29  Cl   0.000045   0.000011   0.000000   0.000001   0.000390   0.001620
    30  Cl  -0.000027  -0.000000   0.000000  -0.000000  -0.000736   0.000676
              25         26         27         28         29         30
     1  C   -1.145580  -0.031472  -0.078279   0.289534  -0.057134  -0.083356
     2  C    0.016076  -0.047331  -0.027279  -0.115586   0.119982  -0.199263
     3  C    0.126744   0.006182   0.102523   0.005307   0.069013  -0.360230
     4  C   -0.734140   0.044771   0.046685   0.028707  -0.220633   0.132937
     5  C   -0.456965   0.090090   0.006833   0.018760  -0.269166   0.225729
     6  C    0.112157  -0.066962  -0.059529  -0.180932   0.075723  -0.012864
     7  N    0.025591  -0.000045  -0.000014  -0.000078   0.019010  -0.024030
     8  C   -0.055000  -0.000193  -0.000180   0.000851   0.076405   0.074467
     9  N    0.002506  -0.000002  -0.000000   0.000002  -0.004489  -0.007909
    10  O   -0.002939  -0.000008  -0.000001   0.000017  -0.032371   0.008441
    11  C   -0.000620  -0.000005  -0.000002   0.000010   0.022643   0.009745
    12  C    0.000041  -0.000000   0.000000   0.000000   0.002628  -0.001540
    13  C   -0.000004  -0.000000  -0.000000   0.000000   0.000647   0.000033
    14  H   -0.000120  -0.000000  -0.000000   0.000000  -0.001204   0.019464
    15  H   -0.000025   0.000000  -0.000000  -0.000000  -0.000596   0.000692
    16  H   -0.000004   0.000000  -0.000000  -0.000000  -0.000490   0.000192
    17  H    0.000001  -0.000000  -0.000000   0.000000   0.001541  -0.000042
    18  H   -0.000000  -0.000000  -0.000000  -0.000000   0.000005  -0.000002
    19  H    0.000000   0.000000   0.000000   0.000000   0.000045  -0.000027
    20  H    0.000000  -0.000000  -0.000000   0.000000   0.000011  -0.000000
    21  H   -0.000000  -0.000000  -0.000000  -0.000000   0.000000   0.000000
    22  H   -0.000000   0.000000   0.000000  -0.000000   0.000001  -0.000000
    23  H    0.007090   0.000232   0.005209   0.000022   0.000390  -0.000736
    24  H    0.000278   0.003925   0.000292  -0.000445   0.001620   0.000676
    25  C    6.313079   0.125195   0.120362   0.095321  -0.022780  -0.019458
    26  F    0.125195   9.268693  -0.040845  -0.054138  -0.001417  -0.000211
    27  F    0.120362  -0.040845   9.287228  -0.051233  -0.000153  -0.001257
    28  F    0.095321  -0.054138  -0.051233   9.220300   0.000097   0.000611
    29  Cl  -0.022780  -0.001417  -0.000153   0.000097  16.980811  -0.011526
    30  Cl  -0.019458  -0.000211  -0.001257   0.000611  -0.011526  17.015351
 Mulliken charges:
               1
     1  C   -1.317907
     2  C   -0.091482
     3  C   -0.282749
     4  C    0.146934
     5  C   -0.168717
     6  C    0.453818
     7  N   -0.724318
     8  C    0.274093
     9  N   -0.600792
    10  O   -0.499050
    11  C   -0.150931
    12  C   -0.337328
    13  C   -0.725103
    14  H    0.430443
    15  H    0.402399
    16  H    0.245283
    17  H    0.224086
    18  H    0.209327
    19  H    0.225201
    20  H    0.215821
    21  H    0.215230
    22  H    0.217001
    23  H    0.261240
    24  H    0.262760
    25  C    1.493190
    26  F   -0.296459
    27  F   -0.310360
    28  F   -0.257129
    29  Cl   0.251387
    30  Cl   0.234111
    31  O    0.000000
    32  O    0.000000
    33  C    0.000000
    34  C    0.000000
    35  C    0.000000
    36  H    0.000000
    37  H    0.000000
    38  H    0.000000
    39  H    0.000000
    40  H    0.000000
 Sum of Mulliken charges =  -0.00000
 Mulliken charges with hydrogens summed into heavy atoms:
               1
     1  C   -1.317907
     2  C    0.169758
     3  C   -0.282749
     4  C    0.146934
     5  C   -0.168717
     6  C    0.716578
     7  N   -0.293876
     8  C    0.274093
     9  N   -0.198393
    10  O   -0.499050
    11  C    0.318438
    12  C    0.097200
    13  C   -0.077050
    25  C    1.493190
    26  F   -0.296459
    27  F   -0.310360
    28  F   -0.257129
    29  Cl   0.251387
    30  Cl   0.234111
    31  O    0.000000
    32  O    0.000000
    33  C    0.000000
    34  C    0.000000
    35  C    0.000000
         Mulliken charges condensed to fragments:
      1     -0.000000
      2      0.000000
 Electronic spatial extent (au):  <R**2>=           9352.2949
 Charge=             -0.0000 electrons
 Dipole moment (field-independent basis, Debye):
    X=              5.5668    Y=              2.3365    Z=              0.8854  Tot=              6.1019
 Quadrupole moment (field-independent basis, Debye-Ang):
   XX=           -120.9791   YY=           -128.9783   ZZ=           -126.6851
   XY=             -3.3214   XZ=             -0.9255   YZ=             -3.0103
 Traceless Quadrupole moment (field-independent basis, Debye-Ang):
   XX=              4.5684   YY=             -3.4308   ZZ=             -1.1376
   XY=             -3.3214   XZ=             -0.9255   YZ=             -3.0103
 Octapole moment (field-independent basis, Debye-Ang**2):
  XXX=            403.8500  YYY=            264.2652  ZZZ=             63.4273  XYY=             89.5854
  XXY=             56.5429  XXZ=             19.7245  XZZ=             82.4924  YZZ=             85.5629
  YYZ=             28.5655  XYZ=             11.2153
 Hexadecapole moment (field-independent basis, Debye-Ang**3):
 XXXX=          -8956.7529 YYYY=          -2167.6557 ZZZZ=           -876.7981 XXXY=            749.7788
 XXXZ=            206.5183 YYYX=            829.6331 YYYZ=            132.3912 ZZZX=            257.0499
 ZZZY=            160.0038 XXYY=          -1710.2940 XXZZ=          -1577.7492 YYZZ=           -485.3536
 XXYZ=             42.7275 YYXZ=             74.2134 ZZXY=            271.2344
 N-N= 1.720635610823D+03 E-N=-7.758123049387D+03  KE= 1.820178144772D+03
 CPIOFr:  IOpCl= 0 IRwI=-1 IRwCP=  731 ICalc=  3 LCPTot=      382476 Len1MO=      992706 IndFrg=     4353300
 Counterpoise: doing MCBS calculation for fragment   2
 Basis read from rwf:  (6D, 7F)
 There are   105 symmetry adapted cartesian basis functions of A   symmetry.
 There are   105 symmetry adapted basis functions of A   symmetry.
   105 basis functions,   180 primitive gaussians,   105 cartesian basis functions
    20 alpha electrons       20 beta electrons
       nuclear repulsion energy       168.5616125466 Hartrees.
 NAtoms=   40 NActive=   10 NUniq=   10 SFac= 1.00D+00 NAtFMM=   60 NAOKFM=F Big=F
 Integral buffers will be    131072 words long.
 Raffenetti 2 integral format.
 Two-electron integral symmetry is turned on.
 One-electron integrals computed using PRISM.
 NBasis=   105 RedAO= T EigKep=  1.23D-04  NBF=   105
 NBsUse=   105 1.00D-06 EigRej= -1.00D+00 NBFU=   105
 ExpMin= 4.38D-02 ExpMax= 5.48D+03 ExpMxC= 8.25D+02 IAcc=3 IRadAn=         5 AccDes= 0.00D+00
 Harris functional with IExCor= 1009 and IRadAn=       5 diagonalized for initial guess.
 HarFok:  IExCor= 1009 AccDes= 0.00D+00 IRadAn=         5 IDoV= 1 UseB2=F ITyADJ=14
 ICtDFT=  3500011 ScaDFX=  1.000000  1.000000  1.000000  1.000000
 FoFCou: FMM=F IPFlag=           0 FMFlag=      100000 FMFlg1=           0
         NFxFlg=           0 DoJE=T BraDBF=F KetDBF=T FulRan=T
         wScrn=  0.000000 ICntrl=     500 IOpCl=  0 I1Cent=   200000004 NGrid=           0
         NMat0=    1 NMatS0=      1 NMatT0=    0 NMatD0=    1 NMtDS0=    0 NMtDT0=    0
 Petite list used in FoFCou.
 Keep R1 ints in memory in canonical form, NReq=16474200.
 Requested convergence on RMS density matrix=1.00D-08 within 128 cycles.
 Requested convergence on MAX density matrix=1.00D-06.
 Requested convergence on             energy=1.00D-06.
 No special actions if energy rises.
 SCF Done:  E(RM062X) =  -267.728610567     A.U. after   14 cycles
            NFock= 14  Conv=0.39D-08     -V/T= 2.0084

 **********************************************************************

            Population analysis using the SCF density.

 **********************************************************************

 Orbital symmetries:
       Occupied  (A) (A) (A) (A) (A) (A) (A) (A) (A) (A) (A) (A)
                 (A) (A) (A) (A) (A) (A) (A) (A)
       Virtual   (A) (A) (A) (A) (A) (A) (A) (A) (A) (A) (A) (A)
                 (A) (A) (A) (A) (A) (A) (A) (A) (A) (A) (A) (A)
                 (A) (A) (A) (A) (A) (A) (A) (A) (A) (A) (A) (A)
                 (A) (A) (A) (A) (A) (A) (A) (A) (A) (A) (A) (A)
                 (A) (A) (A) (A) (A) (A) (A) (A) (A) (A) (A) (A)
                 (A) (A) (A) (A) (A) (A) (A) (A) (A) (A) (A) (A)
                 (A) (A) (A) (A) (A) (A) (A) (A) (A) (A) (A) (A)
                 (A)
 The electronic state is 1-A.
 Alpha  occ. eigenvalues --  -19.38362 -19.37993 -10.43635 -10.38663 -10.37495
 Alpha  occ. eigenvalues --   -0.94253  -0.84592  -0.69874  -0.55965  -0.39465
 Alpha  occ. eigenvalues --   -0.36242  -0.33537  -0.30128  -0.27593  -0.27397
 Alpha  occ. eigenvalues --   -0.25028  -0.22650  -0.10927  -0.10826  -0.10221
 Alpha virt. eigenvalues --    0.14629   0.16497   0.18646   0.19562   0.21557
 Alpha virt. eigenvalues --    0.21831   0.22423   0.22887   0.23460   0.25915
 Alpha virt. eigenvalues --    0.28397   0.29756   0.30031   0.38006   0.38928
 Alpha virt. eigenvalues --    0.42262   0.42498   0.43641   0.45469   0.46252
 Alpha virt. eigenvalues --    0.46732   0.47994   0.49554   0.49776   0.50780
 Alpha virt. eigenvalues --    0.55075   0.56097   0.57219   0.71641   0.75278
 Alpha virt. eigenvalues --    0.84472   0.86671   0.89659   0.92081   0.94836
 Alpha virt. eigenvalues --    0.99547   1.01958   1.08494   1.09983   1.14593
 Alpha virt. eigenvalues --    1.20112   1.21335   1.31120   1.32722   1.33948
 Alpha virt. eigenvalues --    1.34625   1.49151   1.54685   1.57845   1.59112
 Alpha virt. eigenvalues --    1.61031   1.63187   1.63270   1.74375   1.78329
 Alpha virt. eigenvalues --    1.80844   1.86823   2.02525   2.02853   2.08585
 Alpha virt. eigenvalues --    2.10055   2.12017   2.14447   2.16442   2.22735
 Alpha virt. eigenvalues --    2.26519   2.27947   2.29523   2.45130   2.52402
 Alpha virt. eigenvalues --    2.54098   2.54350   2.73258   2.74195   2.78606
 Alpha virt. eigenvalues --    2.97889   3.13405   3.27265   3.32586   3.42530
 Alpha virt. eigenvalues --    4.36364   4.41516   4.58221   4.67108   4.82483
          Condensed to atoms (all electrons):
               1          2          3          4          5          6
     1  O    8.617971  -0.168031   0.528927  -0.392727   0.079569  -0.002780
     2  O   -0.168031   8.596106   0.462560  -0.325003   0.095821   0.001165
     3  C    0.528927   0.462560   4.830041  -0.357064   0.050069  -0.015208
     4  C   -0.392727  -0.325003  -0.357064   7.537409  -0.644075   0.388088
     5  C    0.079569   0.095821   0.050069  -0.644075   6.028278  -0.055302
     6  H   -0.002780   0.001165  -0.015208   0.388088  -0.055302   0.530777
     7  H   -0.002857   0.001512  -0.015005   0.388523  -0.056154  -0.032662
     8  H   -0.000118  -0.006723  -0.002023  -0.049477   0.411760  -0.004341
     9  H   -0.000316   0.002903   0.012392  -0.059490   0.377750  -0.002031
    10  H   -0.000080  -0.006612  -0.003446  -0.047797   0.411120   0.003866
               7          8          9         10
     1  O   -0.002857  -0.000118  -0.000316  -0.000080
     2  O    0.001512  -0.006723   0.002903  -0.006612
     3  C   -0.015005  -0.002023   0.012392  -0.003446
     4  C    0.388523  -0.049477  -0.059490  -0.047797
     5  C   -0.056154   0.411760   0.377750   0.411120
     6  H   -0.032662  -0.004341  -0.002031   0.003866
     7  H    0.530556   0.003870  -0.002005  -0.004360
     8  H    0.003870   0.498040  -0.033743  -0.025792
     9  H   -0.002005  -0.033743   0.589016  -0.033871
    10  H   -0.004360  -0.025792  -0.033871   0.500202
 Mulliken charges:
               1
     1  C    0.000000
     2  C    0.000000
     3  C    0.000000
     4  C    0.000000
     5  C    0.000000
     6  C    0.000000
     7  N    0.000000
     8  C    0.000000
     9  N    0.000000
    10  O    0.000000
    11  C    0.000000
    12  C    0.000000
    13  C    0.000000
    14  H    0.000000
    15  H    0.000000
    16  H    0.000000
    17  H    0.000000
    18  H    0.000000
    19  H    0.000000
    20  H    0.000000
    21  H    0.000000
    22  H    0.000000
    23  H    0.000000
    24  H    0.000000
    25  C    0.000000
    26  F    0.000000
    27  F    0.000000
    28  F    0.000000
    29  Cl   0.000000
    30  Cl   0.000000
    31  O   -0.659557
    32  O   -0.653698
    33  C    0.508757
    34  C   -0.438388
    35  C   -0.698836
    36  H    0.188428
    37  H    0.188583
    38  H    0.208546
    39  H    0.149395
    40  H    0.206770
 Sum of Mulliken charges =  -1.00000
 Mulliken charges with hydrogens summed into heavy atoms:
               1
     1  C    0.000000
     2  C    0.000000
     3  C    0.000000
     4  C    0.000000
     5  C    0.000000
     6  C    0.000000
     7  N    0.000000
     8  C    0.000000
     9  N    0.000000
    10  O    0.000000
    11  C    0.000000
    12  C    0.000000
    13  C    0.000000
    25  C    0.000000
    26  F    0.000000
    27  F    0.000000
    28  F    0.000000
    29  Cl   0.000000
    30  Cl   0.000000
    31  O   -0.659557
    32  O   -0.653698
    33  C    0.508757
    34  C   -0.061377
    35  C   -0.134125
         Mulliken charges condensed to fragments:
      1      0.000000
      2     -1.000000
 Electronic spatial extent (au):  <R**2>=           3107.5631
 Charge=             -1.0000 electrons
 Dipole moment (field-independent basis, Debye):
    X=            -14.4931    Y=             -7.2302    Z=             -2.5904  Tot=             16.4023
 Quadrupole moment (field-independent basis, Debye-Ang):
   XX=            -83.8084   YY=            -51.6632   ZZ=            -34.7905
   XY=            -18.7541   XZ=            -10.6179   YZ=             -3.1098
 Traceless Quadrupole moment (field-independent basis, Debye-Ang):
   XX=            -27.0544   YY=              5.0908   ZZ=             21.9635
   XY=            -18.7541   XZ=            -10.6179   YZ=             -3.1098
 Octapole moment (field-independent basis, Debye-Ang**2):
  XXX=           -531.4866  YYY=           -342.6253  ZZZ=            -72.6585  XYY=           -160.8430
  XXY=           -148.6603  XXZ=            -69.3412  XZZ=           -119.6552  YZZ=            -91.0755
  YYZ=            -33.6729  XYZ=            -12.7605
 Hexadecapole moment (field-independent basis, Debye-Ang**3):
 XXXX=          -3219.5213 YYYY=          -2216.8483 ZZZZ=           -169.1343 XXXY=          -1124.6708
 XXXZ=           -458.8801 YYYX=          -1122.0065 YYYZ=           -251.8635 ZZZX=           -266.4213
 ZZZY=           -201.6071 XXYY=           -865.7698 XXZZ=           -467.6858 YYZZ=           -344.8068
 XXYZ=           -123.6001 YYXZ=           -124.2266 ZZXY=           -309.8277
 N-N= 1.685616125466D+02 E-N=-9.724648684018D+02  KE= 2.654885110861D+02
 CPIOFr:  IOpCl= 0 IRwI=-1 IRwCP=  731 ICalc=  4 LCPTot=      382476 Len1MO=      992706 IndFrg=     5346006
 CPIOFr:  IOpCl= 0 IRwI=-2 IRwCP=  731 ICalc=  0 LCPTot=      382476 Len1MO=      992706 IndFrg=     1375182
 Counterpoise corrected energy =   -2097.894540606225
                   BSSE energy =       0.001750780862
               sum of monomers =   -2097.824005655608
           complexation energy =     -45.36 kcal/mole (raw)
           complexation energy =     -44.26 kcal/mole (corrected)
 1\1\GINC-R3710\SP\RM062X\Gen\C14H16Cl2F3N2O3(1-)\ROOT\21-Feb-2019\0\\#
  M062X/Gen 6D SCF=Tight INT(grid=ultrafine) Counterpoise=2 maxdisk=671
 088640\\22Cl_4CF3_EtO.M062X_6-31pGd_bsse\\-1,1\C,0,-4.3479994194,3.958
 2982951,-0.8744042446\C,0,-4.4110096018,2.5928867123,-0.6188091548\C,0
 ,-3.2328424583,1.881524542,-0.4382440646\C,0,-1.9601551605,2.486109001
 2,-0.5142580415\C,0,-1.9483449792,3.8652973538,-0.82217638\C,0,-3.1161
 843117,4.5980701516,-0.9769334629\N,0,-0.8063158274,1.7529886695,-0.34
 54571922\C,0,0.1537927619,2.1243518582,0.605788848\N,0,1.2556772731,1.
 3471121718,0.5749605607\O,0,-0.0245133774,3.0506512331,1.3955059385\C,
 0,2.3202830003,1.5499791872,1.530428932\C,0,3.2316926786,0.3275928915,
 1.5666158528\C,0,4.4001766989,0.5256289272,2.529494038\H,0,-0.74940109
 76,0.7817269844,-0.7379898147\H,0,1.3801279579,0.6223956895,-0.1581233
 855\H,0,1.8832220174,1.7372984534,2.5194130148\H,0,2.9076515216,2.4464
 139248,1.2742074381\H,0,3.5972692283,0.1187517317,0.5544387147\H,0,2.6
 383036667,-0.5471146036,1.8586481875\H,0,5.0161179134,1.3818314728,2.2
 29455645\H,0,5.0475009709,-0.3571187163,2.559766215\H,0,4.0438834223,0
 .7161572863,3.5491173875\H,0,-5.3636912947,2.0801542543,-0.5448171709\
 H,0,-3.0564326213,5.6551024233,-1.2131634178\C,0,-5.6056277477,4.75799
 70156,-0.9991667992\F,0,-5.4870444411,5.7652598034,-1.8881540904\F,0,-
 6.6554644964,4.0099250506,-1.3910111759\F,0,-5.9709805883,5.3351141746
 ,0.1679226256\Cl,0,-0.445220412,4.6739202976,-1.1314707127\Cl,0,-3.338
 7042702,0.1866379271,-0.0834563029\O,0,1.7227315396,-0.7071907687,-1.2
 689639623\O,0,-0.5162198417,-0.7485486019,-1.465416019\C,0,0.640324522
 3,-1.1986603704,-1.68061957\C,0,0.7559531828,-2.4801227594,-2.52415807
 03\C,0,-0.5758062367,-3.0293487676,-3.0206492399\H,0,1.2840956639,-3.2
 210919899,-1.9108315563\H,0,1.4277517036,-2.2542127471,-3.3615670067\H
 ,0,-1.2371622348,-3.254758069,-2.1791260802\H,0,-0.4341337172,-3.94289
 91663,-3.6117142586\H,0,-1.0918815882,-2.2890709239,-3.6388222245\\Ver
 sion=ES64L-G09RevE.01\State=1-A\HF=-267.7286106\RMSD=3.874e-09\Dipole=
 -1.4149125,0.9562979,-0.0312322\Quadrupole=-7.1835154,-3.8854404,11.06
 89559,15.3543435,-1.2036027,-8.4276522\PG=C01 [X(C14H16Cl2F3N2O3)]\\@


 IT IS A PROFOUNDLY ERRONEOUS TRUISM ... THAT WE SHOULD CULTIVATE
 THE HABIT OF THINKING OF WHAT WE ARE DOING.
 THE PRECISE OPPOSITE IS THE CASE.
 CIVILIZATION ADVANCES BY EXTENDING THE NUMBER OF IMPORTANT OPERATIONS
 WHICH WE CAN PERFORM WITHOUT THINKING ABOUT THEM.

                                    -- ALFRED NORTH WHITEHEAD
 Job cpu time:       0 days  2 hours  7 minutes 37.1 seconds.
 File lengths (MBytes):  RWF=    202 Int=      0 D2E=      0 Chk=     55 Scr=      1
 Normal termination of Gaussian 09 at Thu Feb 21 15:32:02 2019.
WARNING: pbs_rusage is deprecated and values produced may not be accurate


=============================================================================
                                     Resource usage:
                                       CPU time:              02:01:27
   JobId:    5975056.r-man2            Elapsed time:          00:31:51
   Project:             q95            Requested time:        48:00:00
   Service Units:      2.12 
                                       Max physical memory:      155MB
                                       Max virtual memory:       336MB
                                       Requested memory:           0MB

                                       Number of cpus:               4

                                       Max jobfs disk use:       0.2GB
                                       Requested jobfs:          5.0GB
=============================================================================

