 Entering Gaussian System, Link 0=/apps/gaussian/g09e01/g09/g09
 AtFile(1): /home/507/hio507/Basis/6-31pGd.gbs
 Initial command:
 /apps/gaussian/g09e01/g09/l1.exe "/jobfs/local/1827389.r-man2/Gau-25356.inp" -scrdir="/jobfs/local/1827389.r-man2/"
 Entering Link 1 = /apps/gaussian/g09e01/g09/l1.exe PID=     25358.
  
 Copyright (c) 1988,1990,1992,1993,1995,1998,2003,2009,2015,
            Gaussian, Inc.  All Rights Reserved.
  
 This is part of the Gaussian(R) 09 program.  It is based on
 the Gaussian(R) 03 system (copyright 2003, Gaussian, Inc.),
 the Gaussian(R) 98 system (copyright 1998, Gaussian, Inc.),
 the Gaussian(R) 94 system (copyright 1995, Gaussian, Inc.),
 the Gaussian 92(TM) system (copyright 1992, Gaussian, Inc.),
 the Gaussian 90(TM) system (copyright 1990, Gaussian, Inc.),
 the Gaussian 88(TM) system (copyright 1988, Gaussian, Inc.),
 the Gaussian 86(TM) system (copyright 1986, Carnegie Mellon
 University), and the Gaussian 82(TM) system (copyright 1983,
 Carnegie Mellon University). Gaussian is a federally registered
 trademark of Gaussian, Inc.
  
 This software contains proprietary and confidential information,
 including trade secrets, belonging to Gaussian, Inc.
  
 This software is provided under written license and may be
 used, copied, transmitted, or stored only in accord with that
 written license.
  
 The following legend is applicable only to US Government
 contracts under FAR:
  
                    RESTRICTED RIGHTS LEGEND
  
 Use, reproduction and disclosure by the US Government is
 subject to restrictions as set forth in subparagraphs (a)
 and (c) of the Commercial Computer Software - Restricted
 Rights clause in FAR 52.227-19.
  
 Gaussian, Inc.
 340 Quinnipiac St., Bldg. 40, Wallingford CT 06492
  
  
 ---------------------------------------------------------------
 Warning -- This program may not be used in any manner that
 competes with the business of Gaussian, Inc. or will provide
 assistance to any competitor of Gaussian, Inc.  The licensee
 of this program is prohibited from giving any competitor of
 Gaussian, Inc. access to this program.  By using this program,
 the user acknowledges that Gaussian, Inc. is engaged in the
 business of creating and licensing software in the field of
 computational chemistry and represents and warrants to the
 licensee that it is not a competitor of Gaussian, Inc. and that
 it will not use this program in any manner prohibited above.
 ---------------------------------------------------------------
  

 Cite this work as:
 Gaussian 09, Revision E.01,
 M. J. Frisch, G. W. Trucks, H. B. Schlegel, G. E. Scuseria, 
 M. A. Robb, J. R. Cheeseman, G. Scalmani, V. Barone, B. Mennucci, 
 G. A. Petersson, H. Nakatsuji, M. Caricato, X. Li, H. P. Hratchian, 
 A. F. Izmaylov, J. Bloino, G. Zheng, J. L. Sonnenberg, M. Hada, 
 M. Ehara, K. Toyota, R. Fukuda, J. Hasegawa, M. Ishida, T. Nakajima, 
 Y. Honda, O. Kitao, H. Nakai, T. Vreven, J. A. Montgomery, Jr., 
 J. E. Peralta, F. Ogliaro, M. Bearpark, J. J. Heyd, E. Brothers, 
 K. N. Kudin, V. N. Staroverov, T. Keith, R. Kobayashi, J. Normand, 
 K. Raghavachari, A. Rendell, J. C. Burant, S. S. Iyengar, J. Tomasi, 
 M. Cossi, N. Rega, J. M. Millam, M. Klene, J. E. Knox, J. B. Cross, 
 V. Bakken, C. Adamo, J. Jaramillo, R. Gomperts, R. E. Stratmann, 
 O. Yazyev, A. J. Austin, R. Cammi, C. Pomelli, J. W. Ochterski, 
 R. L. Martin, K. Morokuma, V. G. Zakrzewski, G. A. Voth, 
 P. Salvador, J. J. Dannenberg, S. Dapprich, A. D. Daniels, 
 O. Farkas, J. B. Foresman, J. V. Ortiz, J. Cioslowski, 
 and D. J. Fox, Gaussian, Inc., Wallingford CT, 2013.
 
 ******************************************
 Gaussian 09:  ES64L-G09RevE.01 30-Nov-2015
                30-Oct-2018 
 ******************************************
 %chk=3SF55Chloro_a1.M062X_6-31pGd_opt_water.chk
 %mem=196608000
 %nproc=4
 Will use up to    4 processors via shared memory.
 ----------------------------------------------------------------------
 # M062X/Gen 6D SCF=Tight INT(grid=ultrafine) OPT IOP(2/17=4) SCRF=(SMD
 ,Solvent=h2o) maxdisk=2684354560
 ----------------------------------------------------------------------
 1/14=-1,18=20,19=15,26=4,38=1/1,3;
 2/9=110,12=2,17=4,18=5,40=1/2;
 3/5=7,8=2,11=2,16=1,25=1,30=1,70=32201,71=1,72=1,74=-55,75=-5/1,2,3;
 4//1;
 5/5=2,32=2,38=5,53=1/2;
 6/7=2,8=2,9=2,10=2,28=1/1;
 7//1,2,3,16;
 1/14=-1,18=20,19=15,26=4/3(2);
 2/9=110,17=4/2;
 99//99;
 2/9=110,17=4/2;
 3/5=7,6=1,8=2,11=2,16=1,25=1,30=1,70=32205,71=1,72=1,74=-55,75=-5,82=7/1,2,3;
 4/5=5,16=3,69=1/1;
 5/5=2,32=2,38=5,53=1/2;
 7//1,2,3,16;
 1/14=-1,18=20,19=15,26=4/3(-5);
 2/9=110,17=4/2;
 6/7=2,8=2,9=2,10=2,19=2,28=1/1;
 99/9=1/99;
 --------------------------------------
 3SF55Chloro_a1.M062X_6-31pGd_opt_water
 --------------------------------------
 Symbolic Z-matrix:
 Charge = -1 Multiplicity = 1
 C                    -1.88082   1.54918  -0.05691 
 C                    -0.46324   0.9966   -0.01106 
 C                     0.56611   2.12808  -0.03556 
 N                     1.90912   1.59345   0.02031 
 C                     3.00314   2.40145   0.00608 
 O                     2.85403   3.61279  -0.04435 
 N                     4.24269   1.83297   0.04736 
 C                     5.52791   2.47375   0.03146 
 C                     5.73659   3.87336  -0.04977 
 C                     6.64805   1.63627   0.10643 
 C                     7.93351   2.15599   0.10625 
 C                     8.13287   3.53014   0.02668 
 C                     7.04424   4.42878  -0.0517 
 H                    -2.60422   0.70809  -0.03896 
 H                    -2.03193   2.13637  -0.98763 
 H                    -2.06667   2.20072   0.82351 
 H                    -0.30146   0.33326  -0.88905 
 H                    -0.33681   0.39799   0.91763 
 H                     0.4064    2.79995   0.83624 
 H                     0.44808   2.71353  -0.97419 
 H                     2.0411    0.56987   0.06725 
 H                     4.89669   4.52826  -0.1095 
 H                     6.51892   0.56241   0.17098 
 H                     9.15787   3.85875   0.03209 
 S                     7.33219   6.26132  -0.14918 
 F                     5.65677   6.59451  -0.2319 
 F                     7.40151   6.15695  -1.85459 
 F                     7.27141   6.37243   1.5576 
 Cl                    9.31152   1.07568   0.21966 
 F                     7.59739   7.94775  -0.24628 
 F                     9.02871   6.07043  -0.06888 
 

 GradGradGradGradGradGradGradGradGradGradGradGradGradGradGradGradGradGrad
 Berny optimization.
 Initialization pass.
                           ----------------------------
                           !    Initial Parameters    !
                           ! (Angstroms and Degrees)  !
 --------------------------                            --------------------------
 ! Name  Definition              Value          Derivative Info.                !
 --------------------------------------------------------------------------------
 ! R1    R(1,2)                  1.5222         estimate D2E/DX2                !
 ! R2    R(1,14)                 1.1095         estimate D2E/DX2                !
 ! R3    R(1,15)                 1.1108         estimate D2E/DX2                !
 ! R4    R(1,16)                 1.1109         estimate D2E/DX2                !
 ! R5    R(2,3)                  1.5298         estimate D2E/DX2                !
 ! R6    R(2,17)                 1.1122         estimate D2E/DX2                !
 ! R7    R(2,18)                 1.1121         estimate D2E/DX2                !
 ! R8    R(3,4)                  1.4466         estimate D2E/DX2                !
 ! R9    R(3,19)                 1.1122         estimate D2E/DX2                !
 ! R10   R(3,20)                 1.1125         estimate D2E/DX2                !
 ! R11   R(4,5)                  1.3601         estimate D2E/DX2                !
 ! R12   R(4,21)                 1.0331         estimate D2E/DX2                !
 ! R13   R(5,6)                  1.2215         estimate D2E/DX2                !
 ! R14   R(5,7)                  1.3643         estimate D2E/DX2                !
 ! R15   R(7,8)                  1.4362         estimate D2E/DX2                !
 ! R16   R(8,9)                  1.4174         estimate D2E/DX2                !
 ! R17   R(8,10)                 1.4006         estimate D2E/DX2                !
 ! R18   R(9,13)                 1.4207         estimate D2E/DX2                !
 ! R19   R(9,22)                 1.0667         estimate D2E/DX2                !
 ! R20   R(10,11)                1.3865         estimate D2E/DX2                !
 ! R21   R(10,23)                1.0835         estimate D2E/DX2                !
 ! R22   R(11,12)                1.3908         estimate D2E/DX2                !
 ! R23   R(11,29)                1.7547         estimate D2E/DX2                !
 ! R24   R(12,13)                1.4138         estimate D2E/DX2                !
 ! R25   R(12,24)                1.0764         estimate D2E/DX2                !
 ! R26   R(13,25)                1.8576         estimate D2E/DX2                !
 ! R27   R(25,26)                1.7102         estimate D2E/DX2                !
 ! R28   R(25,27)                1.71           estimate D2E/DX2                !
 ! R29   R(25,28)                1.7115         estimate D2E/DX2                !
 ! R30   R(25,30)                1.7099         estimate D2E/DX2                !
 ! R31   R(25,31)                1.7091         estimate D2E/DX2                !
 ! A1    A(2,1,14)             109.3605         estimate D2E/DX2                !
 ! A2    A(2,1,15)             110.1105         estimate D2E/DX2                !
 ! A3    A(2,1,16)             110.1714         estimate D2E/DX2                !
 ! A4    A(14,1,15)            109.0011         estimate D2E/DX2                !
 ! A5    A(14,1,16)            108.8258         estimate D2E/DX2                !
 ! A6    A(15,1,16)            109.3443         estimate D2E/DX2                !
 ! A7    A(1,2,3)              110.9555         estimate D2E/DX2                !
 ! A8    A(1,2,17)             109.1591         estimate D2E/DX2                !
 ! A9    A(1,2,18)             109.0523         estimate D2E/DX2                !
 ! A10   A(3,2,17)             109.3048         estimate D2E/DX2                !
 ! A11   A(3,2,18)             109.5717         estimate D2E/DX2                !
 ! A12   A(17,2,18)            108.7622         estimate D2E/DX2                !
 ! A13   A(2,3,4)              110.5306         estimate D2E/DX2                !
 ! A14   A(2,3,19)             109.7321         estimate D2E/DX2                !
 ! A15   A(2,3,20)             109.3499         estimate D2E/DX2                !
 ! A16   A(4,3,19)             109.0448         estimate D2E/DX2                !
 ! A17   A(4,3,20)             108.9999         estimate D2E/DX2                !
 ! A18   A(19,3,20)            109.16           estimate D2E/DX2                !
 ! A19   A(3,4,5)              121.7895         estimate D2E/DX2                !
 ! A20   A(3,4,21)             119.1123         estimate D2E/DX2                !
 ! A21   A(5,4,21)             119.0974         estimate D2E/DX2                !
 ! A22   A(4,5,6)              119.4297         estimate D2E/DX2                !
 ! A23   A(4,5,7)              118.8779         estimate D2E/DX2                !
 ! A24   A(6,5,7)              121.6924         estimate D2E/DX2                !
 ! A25   A(5,7,8)              128.8146         estimate D2E/DX2                !
 ! A26   A(7,8,9)              124.956          estimate D2E/DX2                !
 ! A27   A(7,8,10)             116.6353         estimate D2E/DX2                !
 ! A28   A(9,8,10)             118.4084         estimate D2E/DX2                !
 ! A29   A(8,9,13)             121.441          estimate D2E/DX2                !
 ! A30   A(8,9,22)             119.5719         estimate D2E/DX2                !
 ! A31   A(13,9,22)            118.9871         estimate D2E/DX2                !
 ! A32   A(8,10,11)            121.1521         estimate D2E/DX2                !
 ! A33   A(8,10,23)            120.0322         estimate D2E/DX2                !
 ! A34   A(11,10,23)           118.815          estimate D2E/DX2                !
 ! A35   A(10,11,12)           120.2144         estimate D2E/DX2                !
 ! A36   A(10,11,29)           119.8216         estimate D2E/DX2                !
 ! A37   A(12,11,29)           119.9622         estimate D2E/DX2                !
 ! A38   A(11,12,13)           121.3863         estimate D2E/DX2                !
 ! A39   A(11,12,24)           115.9659         estimate D2E/DX2                !
 ! A40   A(13,12,24)           122.6475         estimate D2E/DX2                !
 ! A41   A(9,13,12)            117.3972         estimate D2E/DX2                !
 ! A42   A(9,13,25)            121.8987         estimate D2E/DX2                !
 ! A43   A(12,13,25)           120.7039         estimate D2E/DX2                !
 ! A44   A(13,25,26)            92.4573         estimate D2E/DX2                !
 ! A45   A(13,25,27)            89.9088         estimate D2E/DX2                !
 ! A46   A(13,25,28)            90.3557         estimate D2E/DX2                !
 ! A47   A(13,25,31)            92.3625         estimate D2E/DX2                !
 ! A48   A(26,25,27)            90.1929         estimate D2E/DX2                !
 ! A49   A(26,25,28)            90.0456         estimate D2E/DX2                !
 ! A50   A(26,25,30)            87.5382         estimate D2E/DX2                !
 ! A51   A(27,25,30)            89.8439         estimate D2E/DX2                !
 ! A52   A(27,25,31)            89.9886         estimate D2E/DX2                !
 ! A53   A(28,25,30)            89.8917         estimate D2E/DX2                !
 ! A54   A(28,25,31)            89.7506         estimate D2E/DX2                !
 ! A55   A(30,25,31)            87.6428         estimate D2E/DX2                !
 ! A56   L(13,25,30,26,-1)     179.9955         estimate D2E/DX2                !
 ! A57   L(26,25,31,13,-1)     184.8198         estimate D2E/DX2                !
 ! A58   L(27,25,28,13,-1)     180.2644         estimate D2E/DX2                !
 ! A59   L(13,25,30,26,-2)     180.2476         estimate D2E/DX2                !
 ! A60   L(26,25,31,13,-2)     180.1739         estimate D2E/DX2                !
 ! A61   L(27,25,28,13,-2)     179.7499         estimate D2E/DX2                !
 ! D1    D(14,1,2,3)           179.9454         estimate D2E/DX2                !
 ! D2    D(14,1,2,17)           59.4263         estimate D2E/DX2                !
 ! D3    D(14,1,2,18)          -59.2735         estimate D2E/DX2                !
 ! D4    D(15,1,2,3)            60.1986         estimate D2E/DX2                !
 ! D5    D(15,1,2,17)          -60.3205         estimate D2E/DX2                !
 ! D6    D(15,1,2,18)         -179.0203         estimate D2E/DX2                !
 ! D7    D(16,1,2,3)           -60.486          estimate D2E/DX2                !
 ! D8    D(16,1,2,17)          178.995          estimate D2E/DX2                !
 ! D9    D(16,1,2,18)           60.2951         estimate D2E/DX2                !
 ! D10   D(1,2,3,4)            179.4924         estimate D2E/DX2                !
 ! D11   D(1,2,3,19)            59.1943         estimate D2E/DX2                !
 ! D12   D(1,2,3,20)           -60.5095         estimate D2E/DX2                !
 ! D13   D(17,2,3,4)           -60.075          estimate D2E/DX2                !
 ! D14   D(17,2,3,19)          179.627          estimate D2E/DX2                !
 ! D15   D(17,2,3,20)           59.9232         estimate D2E/DX2                !
 ! D16   D(18,2,3,4)            59.0187         estimate D2E/DX2                !
 ! D17   D(18,2,3,19)          -61.2794         estimate D2E/DX2                !
 ! D18   D(18,2,3,20)          179.0169         estimate D2E/DX2                !
 ! D19   D(2,3,4,5)            179.7315         estimate D2E/DX2                !
 ! D20   D(2,3,4,21)             0.0612         estimate D2E/DX2                !
 ! D21   D(19,3,4,5)           -59.5599         estimate D2E/DX2                !
 ! D22   D(19,3,4,21)          120.7698         estimate D2E/DX2                !
 ! D23   D(20,3,4,5)            59.5234         estimate D2E/DX2                !
 ! D24   D(20,3,4,21)         -120.1469         estimate D2E/DX2                !
 ! D25   D(3,4,5,6)              0.5979         estimate D2E/DX2                !
 ! D26   D(3,4,5,7)           -179.3347         estimate D2E/DX2                !
 ! D27   D(21,4,5,6)          -179.7318         estimate D2E/DX2                !
 ! D28   D(21,4,5,7)             0.3356         estimate D2E/DX2                !
 ! D29   D(4,5,7,8)            179.4314         estimate D2E/DX2                !
 ! D30   D(6,5,7,8)             -0.4996         estimate D2E/DX2                !
 ! D31   D(5,7,8,9)             -0.829          estimate D2E/DX2                !
 ! D32   D(5,7,8,10)           178.9844         estimate D2E/DX2                !
 ! D33   D(7,8,9,13)           179.6044         estimate D2E/DX2                !
 ! D34   D(7,8,9,22)            -0.3047         estimate D2E/DX2                !
 ! D35   D(10,8,9,13)           -0.206          estimate D2E/DX2                !
 ! D36   D(10,8,9,22)          179.8849         estimate D2E/DX2                !
 ! D37   D(7,8,10,11)         -179.614          estimate D2E/DX2                !
 ! D38   D(7,8,10,23)            0.0782         estimate D2E/DX2                !
 ! D39   D(9,8,10,11)            0.2122         estimate D2E/DX2                !
 ! D40   D(9,8,10,23)          179.9043         estimate D2E/DX2                !
 ! D41   D(8,9,13,12)            0.1833         estimate D2E/DX2                !
 ! D42   D(8,9,13,25)         -179.6914         estimate D2E/DX2                !
 ! D43   D(22,9,13,12)        -179.9071         estimate D2E/DX2                !
 ! D44   D(22,9,13,25)           0.2181         estimate D2E/DX2                !
 ! D45   D(8,10,11,12)          -0.2012         estimate D2E/DX2                !
 ! D46   D(8,10,11,29)         179.3138         estimate D2E/DX2                !
 ! D47   D(23,10,11,12)       -179.8971         estimate D2E/DX2                !
 ! D48   D(23,10,11,29)         -0.3821         estimate D2E/DX2                !
 ! D49   D(10,11,12,13)          0.1796         estimate D2E/DX2                !
 ! D50   D(10,11,12,24)        179.9836         estimate D2E/DX2                !
 ! D51   D(29,11,12,13)       -179.3347         estimate D2E/DX2                !
 ! D52   D(29,11,12,24)          0.4693         estimate D2E/DX2                !
 ! D53   D(11,12,13,9)          -0.1683         estimate D2E/DX2                !
 ! D54   D(11,12,13,25)        179.708          estimate D2E/DX2                !
 ! D55   D(24,12,13,9)        -179.9591         estimate D2E/DX2                !
 ! D56   D(24,12,13,25)         -0.0827         estimate D2E/DX2                !
 ! D57   D(9,13,25,26)          -0.8669         estimate D2E/DX2                !
 ! D58   D(9,13,25,27)         -91.056          estimate D2E/DX2                !
 ! D59   D(9,13,25,28)          89.1941         estimate D2E/DX2                !
 ! D60   D(9,13,25,31)         178.9592         estimate D2E/DX2                !
 ! D61   D(12,13,25,26)        179.2624         estimate D2E/DX2                !
 ! D62   D(12,13,25,27)         89.0733         estimate D2E/DX2                !
 ! D63   D(12,13,25,28)        -90.6766         estimate D2E/DX2                !
 ! D64   D(12,13,25,31)         -0.9115         estimate D2E/DX2                !
 --------------------------------------------------------------------------------
 Trust Radius=3.00D-01 FncErr=1.00D-07 GrdErr=1.00D-06
 Number of steps in this run=    166 maximum allowed number of steps=    186.
 GradGradGradGradGradGradGradGradGradGradGradGradGradGradGradGradGradGrad

                          Input orientation:                          
 ---------------------------------------------------------------------
 Center     Atomic      Atomic             Coordinates (Angstroms)
 Number     Number       Type             X           Y           Z
 ---------------------------------------------------------------------
      1          6           0       -1.880820    1.549180   -0.056910
      2          6           0       -0.463240    0.996600   -0.011060
      3          6           0        0.566110    2.128080   -0.035560
      4          7           0        1.909120    1.593450    0.020310
      5          6           0        3.003140    2.401450    0.006080
      6          8           0        2.854030    3.612790   -0.044350
      7          7           0        4.242690    1.832970    0.047360
      8          6           0        5.527910    2.473750    0.031460
      9          6           0        5.736590    3.873360   -0.049770
     10          6           0        6.648050    1.636270    0.106430
     11          6           0        7.933510    2.155990    0.106250
     12          6           0        8.132870    3.530140    0.026680
     13          6           0        7.044240    4.428780   -0.051700
     14          1           0       -2.604220    0.708090   -0.038960
     15          1           0       -2.031930    2.136370   -0.987630
     16          1           0       -2.066670    2.200720    0.823510
     17          1           0       -0.301460    0.333260   -0.889050
     18          1           0       -0.336810    0.397990    0.917630
     19          1           0        0.406400    2.799950    0.836240
     20          1           0        0.448080    2.713530   -0.974190
     21          1           0        2.041100    0.569870    0.067250
     22          1           0        4.896690    4.528260   -0.109500
     23          1           0        6.518920    0.562410    0.170980
     24          1           0        9.157870    3.858750    0.032090
     25         16           0        7.332190    6.261320   -0.149180
     26          9           0        5.656770    6.594510   -0.231900
     27          9           0        7.401510    6.156950   -1.854590
     28          9           0        7.271410    6.372430    1.557600
     29         17           0        9.311520    1.075680    0.219660
     30          9           0        7.597390    7.947750   -0.246280
     31          9           0        9.028710    6.070430   -0.068880
 ---------------------------------------------------------------------
                    Distance matrix (angstroms):
                    1          2          3          4          5
     1  C    0.000000
     2  C    1.522163   0.000000
     3  C    2.514567   1.529839   0.000000
     4  N    3.790985   2.446488   1.446591   0.000000
     5  C    4.958165   3.740279   2.452668   1.360127   0.000000
     6  O    5.165022   4.224907   2.727457   2.230419   1.221524
     7  N    6.130969   4.780032   3.689337   2.345986   1.364316
     8  C    7.466721   6.170710   4.974278   3.724338   2.525932
     9  C    7.964094   6.834847   5.457112   4.455606   3.105058
    10  C    8.530879   7.140968   6.103444   4.739906   3.725713
    11  C    9.834425   8.477226   7.368818   6.051207   4.937493
    12  C   10.208094   8.961772   7.695811   6.518119   5.252475
    13  C    9.378103   8.254924   6.874565   5.866322   4.521493
    14  H    1.109532   2.160512   3.473813   4.599741   5.857643
    15  H    1.110795   2.171072   2.767005   4.103971   5.139033
    16  H    1.110938   2.171958   2.770344   4.101318   5.139208
    17  H    2.159930   1.112232   2.168525   2.702162   3.999881
    18  H    2.158456   1.112108   2.171876   2.697871   4.000005
    19  H    2.755634   2.173997   1.112183   2.092738   2.755182
    20  H    2.760596   2.169325   1.112524   2.092426   2.754388
    21  H    4.044245   2.541643   2.148065   1.033121   2.069770
    22  H    7.403535   6.419592   4.951793   4.189933   2.849949
    23  H    8.460572   6.998015   6.158728   4.726098   3.971142
    24  H   11.278063  10.037904   8.764596   7.594478   6.324959
    25  S   10.348542   9.407714   7.929465   7.157334   5.802015
    26  F    9.072003   8.296981   6.775128   6.254526   4.967911
    27  F   10.517835   9.585516   8.140231   7.382894   6.075486
    28  F   10.470611   9.549087   8.094054   7.345479   6.032746
    29  Cl  11.205765   9.777802   8.812201   7.423163   6.449724
    30  F   11.437396  10.646482   9.129724   8.532562   7.206404
    31  F   11.809305  10.763095   9.335889   8.410700   7.055106
                    6          7          8          9         10
     6  O    0.000000
     7  N    2.259324   0.000000
     8  C    2.907369   1.436190   0.000000
     9  C    2.894318   2.530684   1.417411   0.000000
    10  C    4.280649   2.414112   1.400609   2.420688   0.000000
    11  C    5.286404   3.705396   2.427648   2.792877   1.386548
    12  C    5.279965   4.244327   2.811014   2.421942   2.407861
    13  C    4.268929   3.820566   2.475543   1.420719   2.824904
    14  H    6.183025   6.939235   8.321902   8.921220   9.299847
    15  H    5.190587   6.366641   7.635676   8.015399   8.762940
    16  H    5.192342   6.367548   7.640650   8.028151   8.762371
    17  H    4.628818   4.875991   6.277785   7.049450   7.140343
    18  H    4.630530   4.877331   6.284029   7.064011   7.140004
    19  H    2.725260   4.034167   5.194607   5.508915   6.391007
    20  H    2.731642   4.027160   5.183966   5.492549   6.384971
    21  H    3.151614   2.538270   3.972894   4.958164   4.728925
    22  H    2.239373   2.777933   2.153908   1.066721   3.387845
    23  H    4.773113   2.609756   2.157496   3.409276   1.083520
    24  H    6.309100   5.316297   3.885207   3.422290   3.353228
    25  S    5.203808   5.403140   4.199255   2.873704   4.682357
    26  F    4.096484   4.974924   4.131177   2.728406   5.067667
    27  F    5.516275   5.682637   4.542414   3.353225   4.984962
    28  F    5.449321   5.662214   4.535262   3.344348   4.992563
    29  Cl   6.943040   5.127983   4.038035   4.547497   2.724180
    30  F    6.429006   6.980743   5.858717   4.483508   6.392216
    31  F    6.645846   6.393400   5.020137   3.957971   5.035876
                   11         12         13         14         15
    11  C    0.000000
    12  C    1.390814   0.000000
    13  C    2.445674   1.413794   0.000000
    14  H   10.637728  11.101954  10.341009   0.000000
    15  H   10.025316  10.309926   9.407867   1.807616   0.000000
    16  H   10.025969  10.316633   9.420134   1.805757   1.812616
    17  H    8.492803   9.066230   8.451849   2.483114   2.501090
    18  H    8.493945   9.074119   8.465623   2.480398   3.086327
    19  H    7.589793   7.803006   6.892202   3.769043   3.116455
    20  H    7.583526   7.792598   6.877674   3.770011   2.546320
    21  H    6.102278   6.773072   6.319553   4.648589   4.489573
    22  H    3.859597   3.389344   2.150630   8.417976   7.382278
    23  H    2.131842   3.381284   3.908243   9.126718   8.771360
    24  H    2.098559   1.076401   2.190750  12.176965  11.367412
    25  S    4.156990   2.851554   1.857585  11.383442  10.266691
    26  F    4.999835   3.948202   2.578358  10.145498   8.919767
    27  F    4.487271   3.312732   2.522821  11.536950  10.291087
    28  F    4.508122   3.341323   2.533620  11.496165  10.534445
    29  Cl   1.754663   2.729621   4.056781  11.924213  11.456722
    30  F    5.812206   4.458310   3.567490  12.511135  11.271448
    31  F    4.068535   2.695317   2.575545  12.809397  11.775342
                   16         17         18         19         20
    16  H    0.000000
    17  H    3.088079   0.000000
    18  H    2.500222   1.808185   0.000000
    19  H    2.544664   3.092289   2.515631   0.000000
    20  H    3.133475   2.496947   3.091401   1.812971   0.000000
    21  H    4.483902   2.541276   2.531234   2.869991   2.866634
    22  H    7.401103   6.725064   6.745639   4.903487   4.881707
    23  H    8.764828   6.906067   6.898228   6.543092   6.541699
    24  H   11.373905  10.136888  10.144456   8.851889   8.842204
    25  S   10.284608   9.693395   9.712378   7.805043   7.788352
    26  F    8.948229   8.668080   8.697200   6.565516   6.537848
    27  F   10.605207   9.704812  10.036554   8.212282   7.809125
    28  F   10.253867   9.990297   9.694767   7.772473   8.145879
    29  Cl  11.449609   9.705143   9.697252   9.091449   9.092216
    30  F   11.294550  10.990243  11.013859   8.909659   8.890419
    31  F   11.784671  10.983618  10.993759   9.266041   9.258271
                   21         22         23         24         25
    21  H    0.000000
    22  H    4.884105   0.000000
    23  H    4.479028   4.293980   0.000000
    24  H    7.840050   4.315779   4.224832   0.000000
    25  S    7.774000   2.989437   5.765543   3.022964   0.000000
    26  F    7.032698   2.205015   6.106705   4.451042   1.710231
    27  F    7.977652   3.460071   6.015046   3.453416   1.710006
    28  F    7.952798   3.437947   6.020406   3.493494   1.711472
    29  Cl   7.289587   5.614212   2.839794   2.793612   5.562792
    30  F    9.241416   4.359518   7.475323   4.385488   1.709914
    31  F    8.893896   4.410615   6.057628   2.217748   1.709113
                   26         27         28         29         30
    26  F    0.000000
    27  F    2.422540   0.000000
    28  F    2.420474   3.421461   0.000000
    29  Cl   6.634651   5.811192   5.831612   0.000000
    30  F    2.365898   2.414952   2.416998   7.097935   0.000000
    31  F    3.416316   2.417442   2.413451   5.011064   2.367378
                   31
    31  F    0.000000
 Stoichiometry    C10H11ClF5N2OS(1-)
 Framework group  C1[X(C10H11ClF5N2OS)]
 Deg. of freedom    87
 Full point group                 C1      NOp   1
 Largest Abelian subgroup         C1      NOp   1
 Largest concise Abelian subgroup C1      NOp   1
                         Standard orientation:                         
 ---------------------------------------------------------------------
 Center     Atomic      Atomic             Coordinates (Angstroms)
 Number     Number       Type             X           Y           Z
 ---------------------------------------------------------------------
      1          6           0       -7.638718   -1.120489   -0.000646
      2          6           0       -6.585905   -0.021283    0.016951
      3          6           0       -5.175704   -0.613945   -0.005225
      4          7           0       -4.183032    0.438293   -0.000288
      5          6           0       -2.850440    0.166240   -0.011797
      6          8           0       -2.475331   -0.995973   -0.037827
      7          7           0       -1.965769    1.204671    0.007559
      8          6           0       -0.530154    1.164262    0.011864
      9          6           0        0.248941   -0.019826    0.012754
     10          6           0        0.132735    2.398070    0.011332
     11          6           0        1.517497    2.468325    0.007270
     12          6           0        2.277408    1.303465    0.007845
     13          6           0        1.668872    0.027340    0.008750
     14          1           0       -8.649108   -0.662380    0.016982
     15          1           0       -7.522685   -1.774759    0.889485
     16          1           0       -7.538492   -1.732216   -0.922563
     17          1           0       -6.712946    0.591155    0.936646
     18          1           0       -6.729118    0.632814   -0.870986
     19          1           0       -5.043154   -1.233626   -0.919215
     20          1           0       -5.030350   -1.253231    0.893604
     21          1           0       -4.494600    1.423152    0.017516
     22          1           0       -0.236738   -0.969565    0.015033
     23          1           0       -0.436944    3.319741    0.009082
     24          1           0        3.345426    1.437493    0.004249
     25         16           0        2.702254   -1.516255    0.001368
     26          9           0        1.323434   -2.527698    0.028375
     27          9           0        2.731910   -1.501300    1.711052
     28          9           0        2.683173   -1.533632   -1.709909
     29         17           0        2.311792    4.032801   -0.011499
     30          9           0        3.653479   -2.937162    0.001957
     31          9           0        4.160143   -0.624878   -0.031377
 ---------------------------------------------------------------------
 Rotational constants (GHZ):      0.3604872      0.1280345      0.0987699
 General basis read from cards:  (6D, 7F)
 There are   410 symmetry adapted cartesian basis functions of A   symmetry.
 There are   410 symmetry adapted basis functions of A   symmetry.
   410 basis functions,   732 primitive gaussians,   410 cartesian basis functions
    86 alpha electrons       86 beta electrons
       nuclear repulsion energy      1943.3910304366 Hartrees.
 NAtoms=   31 NActive=   31 NUniq=   31 SFac= 1.00D+00 NAtFMM=   60 NAOKFM=F Big=F
 Integral buffers will be    131072 words long.
 Raffenetti 2 integral format.
 Two-electron integral symmetry is turned on.
 ------------------------------------------------------------------------------
 Polarizable Continuum Model (PCM)
 =================================
 Model                : PCM (using non-symmetric T matrix).
 Atomic radii         : SMD-Coulomb.
 Polarization charges : Total charges.
 Charge compensation  : None.
 Solution method      : On-the-fly selection.
 Cavity type          : VdW (van der Waals Surface) (Alpha=1.000).
 Cavity algorithm     : GePol (No added spheres)
                        Default sphere list used, NSphG=   31.
                        Lebedev-Laikov grids with approx.  5.0 points / Ang**2.
                        Smoothing algorithm: York/Karplus (Gamma=1.0000).
                        Polarization charges: spherical gaussians, with
                                              point-specific exponents (IZeta= 3).
                        Self-potential: point-specific (ISelfS= 7).
                        Self-field    : sphere-specific E.n sum rule (ISelfD= 2).
 1st derivatives      : Analytical E(r).r(x)/FMM algorithm (CHGder, D1EAlg=3).
                        Cavity 1st derivative terms included.
 Solvent              : Water, Eps=  78.355300 Eps(inf)=   1.777849
 ------------------------------------------------------------------------------
 ------------------------------------------------------------------------------
 Atomic radii for non-electrostatic terms: SMD-CDS.
 ------------------------------------------------------------------------------
 Nuclear repulsion after PCM non-electrostatic terms =     1943.4021651181 Hartrees.
 One-electron integrals computed using PRISM.
 NBasis=   410 RedAO= T EigKep=  1.06D-06  NBF=   410
 NBsUse=   409 1.00D-06 EigRej=  5.95D-07 NBFU=   409
 ExpMin= 4.05D-02 ExpMax= 2.52D+04 ExpMxC= 3.78D+03 IAcc=3 IRadAn=         5 AccDes= 0.00D+00
 Harris functional with IExCor= 1009 and IRadAn=       5 diagonalized for initial guess.
 HarFok:  IExCor= 1009 AccDes= 0.00D+00 IRadAn=         5 IDoV= 1 UseB2=F ITyADJ=14
 ICtDFT=  3500011 ScaDFX=  1.000000  1.000000  1.000000  1.000000
 FoFCou: FMM=F IPFlag=           0 FMFlag=      100000 FMFlg1=           0
         NFxFlg=           0 DoJE=T BraDBF=F KetDBF=T FulRan=T
         wScrn=  0.000000 ICntrl=     500 IOpCl=  0 I1Cent=   200000004 NGrid=           0
         NMat0=    1 NMatS0=      1 NMatT0=    0 NMatD0=    1 NMtDS0=    0 NMtDT0=    0
 Petite list used in FoFCou.
 Requested convergence on RMS density matrix=1.00D-08 within 128 cycles.
 Requested convergence on MAX density matrix=1.00D-06.
 Requested convergence on             energy=1.00D-06.
 No special actions if energy rises.
 Inv3:  Mode=1 IEnd=    20326827.
 Iteration    1 A*A^-1 deviation from unit magnitude is 5.00D-15 for   1917.
 Iteration    1 A*A^-1 deviation from orthogonality  is 5.30D-15 for   2597    959.
 Iteration    1 A^-1*A deviation from unit magnitude is 7.55D-15 for   2597.
 Iteration    1 A^-1*A deviation from orthogonality  is 8.44D-12 for   2149   2060.
 Error on total polarization charges =  0.04740
 SCF Done:  E(RM062X) =  -1929.58354445     A.U. after   19 cycles
            NFock= 19  Conv=0.18D-08     -V/T= 2.0064
 SMD-CDS (non-electrostatic) energy       (kcal/mol) =       6.99
 (included in total energy above)

 **********************************************************************

            Population analysis using the SCF density.

 **********************************************************************

 Orbital symmetries:
       Occupied  (A) (A) (A) (A) (A) (A) (A) (A) (A) (A) (A) (A)
                 (A) (A) (A) (A) (A) (A) (A) (A) (A) (A) (A) (A)
                 (A) (A) (A) (A) (A) (A) (A) (A) (A) (A) (A) (A)
                 (A) (A) (A) (A) (A) (A) (A) (A) (A) (A) (A) (A)
                 (A) (A) (A) (A) (A) (A) (A) (A) (A) (A) (A) (A)
                 (A) (A) (A) (A) (A) (A) (A) (A) (A) (A) (A) (A)
                 (A) (A) (A) (A) (A) (A) (A) (A) (A) (A) (A) (A)
                 (A) (A)
       Virtual   (A) (A) (A) (A) (A) (A) (A) (A) (A) (A) (A) (A)
                 (A) (A) (A) (A) (A) (A) (A) (A) (A) (A) (A) (A)
                 (A) (A) (A) (A) (A) (A) (A) (A) (A) (A) (A) (A)
                 (A) (A) (A) (A) (A) (A) (A) (A) (A) (A) (A) (A)
                 (A) (A) (A) (A) (A) (A) (A) (A) (A) (A) (A) (A)
                 (A) (A) (A) (A) (A) (A) (A) (A) (A) (A) (A) (A)
                 (A) (A) (A) (A) (A) (A) (A) (A) (A) (A) (A) (A)
                 (A) (A) (A) (A) (A) (A) (A) (A) (A) (A) (A) (A)
                 (A) (A) (A) (A) (A) (A) (A) (A) (A) (A) (A) (A)
                 (A) (A) (A) (A) (A) (A) (A) (A) (A) (A) (A) (A)
                 (A) (A) (A) (A) (A) (A) (A) (A) (A) (A) (A) (A)
                 (A) (A) (A) (A) (A) (A) (A) (A) (A) (A) (A) (A)
                 (A) (A) (A) (A) (A) (A) (A) (A) (A) (A) (A) (A)
                 (A) (A) (A) (A) (A) (A) (A) (A) (A) (A) (A) (A)
                 (A) (A) (A) (A) (A) (A) (A) (A) (A) (A) (A) (A)
                 (A) (A) (A) (A) (A) (A) (A) (A) (A) (A) (A) (A)
                 (A) (A) (A) (A) (A) (A) (A) (A) (A) (A) (A) (A)
                 (A) (A) (A) (A) (A) (A) (A) (A) (A) (A) (A) (A)
                 (A) (A) (A) (A) (A) (A) (A) (A) (A) (A) (A) (A)
                 (A) (A) (A) (A) (A) (A) (A) (A) (A) (A) (A) (A)
                 (A) (A) (A) (A) (A) (A) (A) (A) (A) (A) (A) (A)
                 (A) (A) (A) (A) (A) (A) (A) (A) (A) (A) (A) (A)
                 (A) (A) (A) (A) (A) (A) (A) (A) (A) (A) (A) (A)
                 (A) (A) (A) (A) (A) (A) (A) (A) (A) (A) (A) (A)
                 (A) (A) (A) (A) (A) (A) (A) (A) (A) (A) (A) (A)
                 (A) (A) (A) (A) (A) (A) (A) (A) (A) (A) (A) (A)
                 (A) (A) (A) (A) (A) (A) (A) (A) (A) (A) (A)
 The electronic state is 1-A.
 Alpha  occ. eigenvalues -- -102.68207 -90.34112 -25.33038 -25.31550 -25.31530
 Alpha  occ. eigenvalues --  -25.31266 -25.31248 -19.58917 -14.76175 -14.70871
 Alpha  occ. eigenvalues --  -10.64669 -10.63038 -10.62719 -10.60523 -10.57681
 Alpha  occ. eigenvalues --  -10.57081 -10.56786 -10.56238 -10.54094 -10.53184
 Alpha  occ. eigenvalues --   -9.82834  -8.62750  -7.55239  -7.54575  -7.54561
 Alpha  occ. eigenvalues --   -6.55082  -6.55071  -6.54677  -1.44698  -1.37477
 Alpha  occ. eigenvalues --   -1.37100  -1.36257  -1.34316  -1.15778  -1.01142
 Alpha  occ. eigenvalues --   -1.00994  -0.96921  -0.95860  -0.91292  -0.87069
 Alpha  occ. eigenvalues --   -0.84621  -0.82973  -0.76145  -0.73770  -0.71534
 Alpha  occ. eigenvalues --   -0.71143  -0.69712  -0.66746  -0.66350  -0.63111
 Alpha  occ. eigenvalues --   -0.61025  -0.60571  -0.60020  -0.59452  -0.56797
 Alpha  occ. eigenvalues --   -0.56513  -0.55112  -0.54840  -0.54583  -0.54497
 Alpha  occ. eigenvalues --   -0.54336  -0.54282  -0.53364  -0.53059  -0.52558
 Alpha  occ. eigenvalues --   -0.51695  -0.51313  -0.49809  -0.49097  -0.48607
 Alpha  occ. eigenvalues --   -0.47663  -0.45512  -0.44549  -0.44486  -0.43267
 Alpha  occ. eigenvalues --   -0.41289  -0.41211  -0.39059  -0.38831  -0.38741
 Alpha  occ. eigenvalues --   -0.35651  -0.35327  -0.31449  -0.30663  -0.28300
 Alpha  occ. eigenvalues --   -0.23898
 Alpha virt. eigenvalues --   -0.10202  -0.01667   0.01354   0.01482   0.02300
 Alpha virt. eigenvalues --    0.03106   0.03425   0.03693   0.04102   0.04264
 Alpha virt. eigenvalues --    0.04713   0.04914   0.05315   0.06045   0.06595
 Alpha virt. eigenvalues --    0.06655   0.07681   0.08040   0.08112   0.08443
 Alpha virt. eigenvalues --    0.08529   0.09203   0.10128   0.10179   0.10914
 Alpha virt. eigenvalues --    0.11005   0.11783   0.12007   0.12333   0.12667
 Alpha virt. eigenvalues --    0.13344   0.14071   0.14113   0.14403   0.14650
 Alpha virt. eigenvalues --    0.15075   0.15871   0.16203   0.17279   0.18128
 Alpha virt. eigenvalues --    0.18543   0.19364   0.19616   0.20416   0.20868
 Alpha virt. eigenvalues --    0.21142   0.21213   0.21330   0.22638   0.23070
 Alpha virt. eigenvalues --    0.23454   0.23497   0.24460   0.24550   0.24904
 Alpha virt. eigenvalues --    0.25117   0.25703   0.26220   0.26273   0.26873
 Alpha virt. eigenvalues --    0.28206   0.28407   0.28581   0.28977   0.29282
 Alpha virt. eigenvalues --    0.29467   0.30130   0.30219   0.30413   0.31003
 Alpha virt. eigenvalues --    0.31588   0.31955   0.32415   0.32562   0.33169
 Alpha virt. eigenvalues --    0.33382   0.33764   0.33906   0.34114   0.34321
 Alpha virt. eigenvalues --    0.35545   0.36396   0.36960   0.36973   0.37130
 Alpha virt. eigenvalues --    0.37311   0.38393   0.38896   0.39594   0.39837
 Alpha virt. eigenvalues --    0.40100   0.40444   0.42025   0.42557   0.43265
 Alpha virt. eigenvalues --    0.43574   0.44831   0.45842   0.47149   0.48217
 Alpha virt. eigenvalues --    0.48560   0.49675   0.51205   0.52515   0.53088
 Alpha virt. eigenvalues --    0.54762   0.55041   0.56398   0.57112   0.57566
 Alpha virt. eigenvalues --    0.58366   0.59321   0.61746   0.63619   0.64917
 Alpha virt. eigenvalues --    0.65250   0.68561   0.70374   0.70553   0.70918
 Alpha virt. eigenvalues --    0.71083   0.71967   0.73003   0.74433   0.75358
 Alpha virt. eigenvalues --    0.75806   0.76671   0.76833   0.77043   0.77774
 Alpha virt. eigenvalues --    0.79108   0.79602   0.80699   0.81159   0.81849
 Alpha virt. eigenvalues --    0.84961   0.85521   0.87268   0.88211   0.89193
 Alpha virt. eigenvalues --    0.89604   0.90299   0.90753   0.91306   0.93448
 Alpha virt. eigenvalues --    0.95886   0.97862   0.98760   0.98902   0.99934
 Alpha virt. eigenvalues --    1.00141   1.01122   1.01522   1.02563   1.04322
 Alpha virt. eigenvalues --    1.05246   1.06467   1.06813   1.09519   1.10898
 Alpha virt. eigenvalues --    1.11390   1.12911   1.13106   1.13530   1.14562
 Alpha virt. eigenvalues --    1.15700   1.16811   1.18586   1.19191   1.21230
 Alpha virt. eigenvalues --    1.22211   1.24003   1.24739   1.26743   1.27470
 Alpha virt. eigenvalues --    1.29884   1.31362   1.34481   1.35430   1.36735
 Alpha virt. eigenvalues --    1.40486   1.41770   1.42088   1.42591   1.44442
 Alpha virt. eigenvalues --    1.45667   1.47197   1.48022   1.48711   1.49198
 Alpha virt. eigenvalues --    1.51740   1.51870   1.52212   1.53552   1.56608
 Alpha virt. eigenvalues --    1.57230   1.57996   1.58706   1.59635   1.60509
 Alpha virt. eigenvalues --    1.62164   1.62317   1.66532   1.69885   1.71100
 Alpha virt. eigenvalues --    1.72029   1.74286   1.74576   1.75969   1.76495
 Alpha virt. eigenvalues --    1.77368   1.79574   1.80271   1.82072   1.82342
 Alpha virt. eigenvalues --    1.83128   1.83835   1.84747   1.84833   1.85001
 Alpha virt. eigenvalues --    1.86427   1.87406   1.87435   1.87889   1.88438
 Alpha virt. eigenvalues --    1.89521   1.89856   1.90236   1.90816   1.93229
 Alpha virt. eigenvalues --    1.94274   1.95123   1.95478   1.97098   1.97247
 Alpha virt. eigenvalues --    1.97313   1.97422   1.98422   1.98748   1.99410
 Alpha virt. eigenvalues --    1.99744   2.01447   2.01810   2.03087   2.03665
 Alpha virt. eigenvalues --    2.03882   2.04590   2.05409   2.05883   2.06506
 Alpha virt. eigenvalues --    2.07870   2.08780   2.10029   2.13859   2.16190
 Alpha virt. eigenvalues --    2.17415   2.18254   2.19156   2.22057   2.22598
 Alpha virt. eigenvalues --    2.23740   2.23818   2.24113   2.26284   2.27586
 Alpha virt. eigenvalues --    2.28494   2.29967   2.30058   2.31286   2.32009
 Alpha virt. eigenvalues --    2.37730   2.38798   2.40404   2.42104   2.42197
 Alpha virt. eigenvalues --    2.44352   2.48599   2.54172   2.58792   2.62587
 Alpha virt. eigenvalues --    2.65960   2.66327   2.67104   2.69353   2.72042
 Alpha virt. eigenvalues --    2.72503   2.76345   2.77840   2.79099   2.81392
 Alpha virt. eigenvalues --    2.82016   2.82425   2.83842   2.85399   2.85841
 Alpha virt. eigenvalues --    2.95032   3.01579   3.08862   3.15661   3.19119
 Alpha virt. eigenvalues --    3.28872   3.35811   3.40329   4.18730   4.20160
 Alpha virt. eigenvalues --    4.27562   4.28701   4.37148   4.38320   4.41981
 Alpha virt. eigenvalues --    4.44635   4.45596   4.49207   4.51519   4.54310
 Alpha virt. eigenvalues --    4.60352   4.67773   4.77561   5.85370   5.86024
 Alpha virt. eigenvalues --    6.06713   6.37711   8.08323
          Condensed to atoms (all electrons):
               1          2          3          4          5          6
     1  C    5.667763  -0.100576   0.073042  -0.007939  -0.063854  -0.004986
     2  C   -0.100576   6.248565  -0.528792  -0.066437   0.198624   0.021715
     3  C    0.073042  -0.528792   7.280138   0.295361  -0.702478  -0.094512
     4  N   -0.007939  -0.066437   0.295361   7.752967   0.479444  -0.245318
     5  C   -0.063854   0.198624  -0.702478   0.479444   6.686623   0.497621
     6  O   -0.004986   0.021715  -0.094512  -0.245318   0.497621   8.756920
     7  N   -0.004132   0.009351  -0.127559  -0.358372   0.276779  -0.113702
     8  C   -0.016426   0.023634  -0.693088  -0.291049  -1.832332  -0.294539
     9  C    0.006518   0.001348   0.159537   0.078871   0.797657   0.361990
    10  C   -0.004232   0.012563  -0.235848  -0.156427  -2.215027  -0.139517
    11  C    0.000020  -0.001950   0.002663   0.008515  -0.119864   0.015631
    12  C    0.000471  -0.001388   0.066780   0.043456   1.300314  -0.015592
    13  C    0.001119   0.000362   0.044435   0.033464   0.007092   0.058988
    14  H    0.414496  -0.090274   0.028049   0.000501  -0.002226   0.000006
    15  H    0.415272  -0.063989  -0.008988   0.000587   0.001028  -0.000054
    16  H    0.417169  -0.064365  -0.008984   0.000428  -0.000133  -0.000056
    17  H   -0.035669   0.427231  -0.075410   0.005979  -0.006312  -0.000208
    18  H   -0.035428   0.426157  -0.074174   0.006114  -0.007073  -0.000199
    19  H    0.005156  -0.043919   0.440683  -0.057404  -0.035549   0.003362
    20  H    0.001727  -0.042562   0.430079  -0.058954  -0.024663   0.003357
    21  H   -0.004188   0.003558  -0.082636   0.246002   0.027776   0.011014
    22  H   -0.000005  -0.000035   0.003461   0.000234   0.008839   0.004589
    23  H   -0.000001   0.000058  -0.001124  -0.000521  -0.023803   0.000129
    24  H    0.000000   0.000000   0.000006   0.000001   0.001037   0.000006
    25  S   -0.000014   0.000204  -0.004969  -0.001268  -0.074704   0.001536
    26  F    0.000001   0.000009  -0.000284  -0.000055  -0.009781  -0.000705
    27  F   -0.000000   0.000001  -0.000057  -0.000027  -0.002305   0.000046
    28  F   -0.000000   0.000001  -0.000027  -0.000025  -0.001005   0.000031
    29  Cl  -0.000003   0.000034  -0.000654  -0.000151  -0.017620  -0.000375
    30  F   -0.000000   0.000000  -0.000007  -0.000002  -0.000724  -0.000013
    31  F    0.000000   0.000000   0.000019   0.000004   0.001440  -0.000008
               7          8          9         10         11         12
     1  C   -0.004132  -0.016426   0.006518  -0.004232   0.000020   0.000471
     2  C    0.009351   0.023634   0.001348   0.012563  -0.001950  -0.001388
     3  C   -0.127559  -0.693088   0.159537  -0.235848   0.002663   0.066780
     4  N   -0.358372  -0.291049   0.078871  -0.156427   0.008515   0.043456
     5  C    0.276779  -1.832332   0.797657  -2.215027  -0.119864   1.300314
     6  O   -0.113702  -0.294539   0.361990  -0.139517   0.015631  -0.015592
     7  N    7.826505   0.329745  -0.089596  -0.300733   0.108325   0.112467
     8  C    0.329745  19.537408  -3.282137  -0.499360   2.727468  -6.141816
     9  C   -0.089596  -3.282137  14.834408  -6.743185   0.718055  -4.478975
    10  C   -0.300733  -0.499360  -6.743185  24.306849  -1.298216  -6.853642
    11  C    0.108325   2.727468   0.718055  -1.298216  10.916060 -10.039459
    12  C    0.112467  -6.141816  -4.478975  -6.853642 -10.039459  50.708209
    13  C   -0.007621  -3.153965   3.159643   0.752345   2.837283 -19.468647
    14  H    0.000008  -0.000049   0.000008  -0.000003  -0.000000   0.000000
    15  H    0.000026   0.000038  -0.000024   0.000003   0.000000   0.000000
    16  H    0.000019  -0.000006  -0.000014   0.000002   0.000000   0.000000
    17  H    0.000016  -0.000868   0.000056   0.000073  -0.000008   0.000004
    18  H    0.000013  -0.000715  -0.000120   0.000130  -0.000006   0.000003
    19  H   -0.001296  -0.006848   0.003249  -0.001036  -0.000035   0.000013
    20  H   -0.000635  -0.004139   0.002028  -0.000426  -0.000034   0.000013
    21  H    0.025587   0.025639  -0.009030   0.005824  -0.000026  -0.000447
    22  H   -0.010551   0.102760   0.318748   0.037287  -0.002060  -0.056737
    23  H    0.000301  -0.089228   0.001165   0.436030  -0.096601   0.066587
    24  H    0.000186  -0.011833   0.014129   0.083675   0.079562   0.193902
    25  S    0.000015  -0.626464  -0.630525   0.310424  -0.439531   1.387780
    26  F   -0.000596   0.081836   0.206360   0.018207   0.041273  -0.416992
    27  F    0.000055   0.053545   0.095009   0.035338   0.048087  -0.208243
    28  F    0.000050   0.052465   0.091063   0.032200   0.054140  -0.216017
    29  Cl  -0.005750  -0.032304  -0.005856   0.153784  -0.101686  -0.237589
    30  F   -0.000023   0.007758   0.054358   0.007405   0.011382  -0.010186
    31  F    0.000153  -0.058836  -0.175627   0.027371  -0.074895   0.633345
              13         14         15         16         17         18
     1  C    0.001119   0.414496   0.415272   0.417169  -0.035669  -0.035428
     2  C    0.000362  -0.090274  -0.063989  -0.064365   0.427231   0.426157
     3  C    0.044435   0.028049  -0.008988  -0.008984  -0.075410  -0.074174
     4  N    0.033464   0.000501   0.000587   0.000428   0.005979   0.006114
     5  C    0.007092  -0.002226   0.001028  -0.000133  -0.006312  -0.007073
     6  O    0.058988   0.000006  -0.000054  -0.000056  -0.000208  -0.000199
     7  N   -0.007621   0.000008   0.000026   0.000019   0.000016   0.000013
     8  C   -3.153965  -0.000049   0.000038  -0.000006  -0.000868  -0.000715
     9  C    3.159643   0.000008  -0.000024  -0.000014   0.000056  -0.000120
    10  C    0.752345  -0.000003   0.000003   0.000002   0.000073   0.000130
    11  C    2.837283  -0.000000   0.000000   0.000000  -0.000008  -0.000006
    12  C  -19.468647   0.000000   0.000000   0.000000   0.000004   0.000003
    13  C   23.359220   0.000000   0.000000   0.000001   0.000006  -0.000001
    14  H    0.000000   0.484560  -0.023762  -0.023955  -0.003021  -0.003040
    15  H    0.000000  -0.023762   0.488869  -0.028418  -0.004655   0.003856
    16  H    0.000001  -0.023955  -0.028418   0.488751   0.003832  -0.004642
    17  H    0.000006  -0.003021  -0.004655   0.003832   0.493805  -0.031064
    18  H   -0.000001  -0.003040   0.003856  -0.004642  -0.031064   0.493960
    19  H    0.000159  -0.000053  -0.000344   0.002658   0.003803  -0.005456
    20  H    0.000093  -0.000062   0.002680  -0.000309  -0.005752   0.003815
    21  H   -0.000576  -0.000004   0.000000  -0.000000   0.000483   0.000512
    22  H   -0.120374  -0.000000   0.000000   0.000000   0.000000   0.000000
    23  H    0.005888  -0.000000  -0.000000  -0.000000  -0.000000  -0.000000
    24  H   -0.057716   0.000000  -0.000000  -0.000000  -0.000000  -0.000000
    25  S   -0.510319  -0.000000  -0.000000  -0.000000  -0.000000  -0.000000
    26  F    0.094698  -0.000000   0.000000   0.000000   0.000000   0.000000
    27  F   -0.052191  -0.000000  -0.000000  -0.000000  -0.000000  -0.000000
    28  F   -0.036771  -0.000000  -0.000000  -0.000000  -0.000000  -0.000000
    29  Cl   0.064673  -0.000000   0.000000  -0.000000  -0.000000  -0.000000
    30  F   -0.203049  -0.000000   0.000000  -0.000000  -0.000000  -0.000000
    31  F   -0.421493  -0.000000   0.000000   0.000000   0.000000   0.000000
              19         20         21         22         23         24
     1  C    0.005156   0.001727  -0.004188  -0.000005  -0.000001   0.000000
     2  C   -0.043919  -0.042562   0.003558  -0.000035   0.000058   0.000000
     3  C    0.440683   0.430079  -0.082636   0.003461  -0.001124   0.000006
     4  N   -0.057404  -0.058954   0.246002   0.000234  -0.000521   0.000001
     5  C   -0.035549  -0.024663   0.027776   0.008839  -0.023803   0.001037
     6  O    0.003362   0.003357   0.011014   0.004589   0.000129   0.000006
     7  N   -0.001296  -0.000635   0.025587  -0.010551   0.000301   0.000186
     8  C   -0.006848  -0.004139   0.025639   0.102760  -0.089228  -0.011833
     9  C    0.003249   0.002028  -0.009030   0.318748   0.001165   0.014129
    10  C   -0.001036  -0.000426   0.005824   0.037287   0.436030   0.083675
    11  C   -0.000035  -0.000034  -0.000026  -0.002060  -0.096601   0.079562
    12  C    0.000013   0.000013  -0.000447  -0.056737   0.066587   0.193902
    13  C    0.000159   0.000093  -0.000576  -0.120374   0.005888  -0.057716
    14  H   -0.000053  -0.000062  -0.000004  -0.000000  -0.000000   0.000000
    15  H   -0.000344   0.002680   0.000000   0.000000  -0.000000  -0.000000
    16  H    0.002658  -0.000309  -0.000000   0.000000  -0.000000  -0.000000
    17  H    0.003803  -0.005752   0.000483   0.000000  -0.000000  -0.000000
    18  H   -0.005456   0.003815   0.000512   0.000000  -0.000000  -0.000000
    19  H    0.514177  -0.042029   0.002195   0.000000  -0.000000   0.000000
    20  H   -0.042029   0.515155   0.002184   0.000000  -0.000000   0.000000
    21  H    0.002195   0.002184   0.277627  -0.000001   0.000005   0.000000
    22  H    0.000000   0.000000  -0.000001   0.415437  -0.000092  -0.000119
    23  H   -0.000000  -0.000000   0.000005  -0.000092   0.431958  -0.000137
    24  H    0.000000   0.000000   0.000000  -0.000119  -0.000137   0.413829
    25  S   -0.000006  -0.000002   0.000004  -0.002991   0.002206  -0.003525
    26  F   -0.000000  -0.000000   0.000000   0.001832  -0.000000   0.000153
    27  F   -0.000000   0.000000   0.000000   0.000121   0.000001   0.000087
    28  F    0.000000  -0.000000   0.000000   0.000133   0.000001   0.000092
    29  Cl  -0.000000  -0.000000  -0.000000  -0.000011   0.002890   0.001694
    30  F   -0.000000  -0.000000   0.000000   0.000155   0.000000   0.000173
    31  F   -0.000000  -0.000000  -0.000000   0.000046   0.000001   0.001278
              25         26         27         28         29         30
     1  C   -0.000014   0.000001  -0.000000  -0.000000  -0.000003  -0.000000
     2  C    0.000204   0.000009   0.000001   0.000001   0.000034   0.000000
     3  C   -0.004969  -0.000284  -0.000057  -0.000027  -0.000654  -0.000007
     4  N   -0.001268  -0.000055  -0.000027  -0.000025  -0.000151  -0.000002
     5  C   -0.074704  -0.009781  -0.002305  -0.001005  -0.017620  -0.000724
     6  O    0.001536  -0.000705   0.000046   0.000031  -0.000375  -0.000013
     7  N    0.000015  -0.000596   0.000055   0.000050  -0.005750  -0.000023
     8  C   -0.626464   0.081836   0.053545   0.052465  -0.032304   0.007758
     9  C   -0.630525   0.206360   0.095009   0.091063  -0.005856   0.054358
    10  C    0.310424   0.018207   0.035338   0.032200   0.153784   0.007405
    11  C   -0.439531   0.041273   0.048087   0.054140  -0.101686   0.011382
    12  C    1.387780  -0.416992  -0.208243  -0.216017  -0.237589  -0.010186
    13  C   -0.510319   0.094698  -0.052191  -0.036771   0.064673  -0.203049
    14  H   -0.000000  -0.000000  -0.000000  -0.000000  -0.000000  -0.000000
    15  H   -0.000000   0.000000  -0.000000  -0.000000   0.000000   0.000000
    16  H   -0.000000   0.000000  -0.000000  -0.000000  -0.000000  -0.000000
    17  H   -0.000000   0.000000  -0.000000  -0.000000  -0.000000  -0.000000
    18  H   -0.000000   0.000000  -0.000000  -0.000000  -0.000000  -0.000000
    19  H   -0.000006  -0.000000  -0.000000   0.000000  -0.000000  -0.000000
    20  H   -0.000002  -0.000000   0.000000  -0.000000  -0.000000  -0.000000
    21  H    0.000004   0.000000   0.000000   0.000000  -0.000000   0.000000
    22  H   -0.002991   0.001832   0.000121   0.000133  -0.000011   0.000155
    23  H    0.002206  -0.000000   0.000001   0.000001   0.002890   0.000000
    24  H   -0.003525   0.000153   0.000087   0.000092   0.001694   0.000173
    25  S   14.176828  -0.022849   0.003804   0.002900  -0.002522   0.201422
    26  F   -0.022849   9.593773  -0.014708  -0.016413  -0.000319  -0.027033
    27  F    0.003804  -0.014708   9.514131  -0.014251  -0.000334  -0.012519
    28  F    0.002900  -0.016413  -0.014251   9.509677  -0.000444  -0.012844
    29  Cl  -0.002522  -0.000319  -0.000334  -0.000444  17.002673  -0.000010
    30  F    0.201422  -0.027033  -0.012519  -0.012844  -0.000010   9.444692
    31  F    0.054432  -0.041467  -0.013271  -0.012824   0.000510  -0.030079
              31
     1  C    0.000000
     2  C    0.000000
     3  C    0.000019
     4  N    0.000004
     5  C    0.001440
     6  O   -0.000008
     7  N    0.000153
     8  C   -0.058836
     9  C   -0.175627
    10  C    0.027371
    11  C   -0.074895
    12  C    0.633345
    13  C   -0.421493
    14  H   -0.000000
    15  H    0.000000
    16  H    0.000000
    17  H    0.000000
    18  H    0.000000
    19  H   -0.000000
    20  H   -0.000000
    21  H   -0.000000
    22  H    0.000046
    23  H    0.000001
    24  H    0.001278
    25  S    0.054432
    26  F   -0.041467
    27  F   -0.013271
    28  F   -0.012824
    29  Cl   0.000510
    30  F   -0.030079
    31  F    9.603715
 Mulliken charges:
               1
     1  C   -0.725301
     2  C   -0.369126
     3  C   -0.184662
     4  N   -0.707980
     5  C    0.855180
     6  O   -0.827158
     7  N   -0.669035
     8  C    0.093707
     9  C    0.510888
    10  C   -1.771857
    11  C    0.605910
    12  C   -0.367615
    13  C   -0.386747
    14  H    0.218820
    15  H    0.217874
    16  H    0.218022
    17  H    0.227681
    18  H    0.227359
    19  H    0.218519
    20  H    0.218435
    21  H    0.468499
    22  H    0.299333
    23  H    0.264286
    24  H    0.283521
    25  S    2.178134
    26  F   -0.486936
    27  F   -0.432317
    28  F   -0.432133
    29  Cl   0.179370
    30  F   -0.430856
    31  F   -0.493814
 Sum of Mulliken charges =  -1.00000
 Mulliken charges with hydrogens summed into heavy atoms:
               1
     1  C   -0.070585
     2  C    0.085914
     3  C    0.252291
     4  N   -0.239481
     5  C    0.855180
     6  O   -0.827158
     7  N   -0.669035
     8  C    0.093707
     9  C    0.810222
    10  C   -1.507571
    11  C    0.605910
    12  C   -0.084093
    13  C   -0.386747
    25  S    2.178134
    26  F   -0.486936
    27  F   -0.432317
    28  F   -0.432133
    29  Cl   0.179370
    30  F   -0.430856
    31  F   -0.493814
 Electronic spatial extent (au):  <R**2>=          10214.6097
 Charge=             -1.0000 electrons
 Dipole moment (field-independent basis, Debye):
    X=              0.1504    Y=              1.9133    Z=              0.1208  Tot=              1.9230
 Quadrupole moment (field-independent basis, Debye-Ang):
   XX=           -141.3096   YY=           -151.0102   ZZ=           -138.3228
   XY=              0.5061   XZ=             -0.2948   YZ=             -0.1975
 Traceless Quadrupole moment (field-independent basis, Debye-Ang):
   XX=              2.2379   YY=             -7.4627   ZZ=              5.2247
   XY=              0.5061   XZ=             -0.2948   YZ=             -0.1975
 Octapole moment (field-independent basis, Debye-Ang**2):
  XXX=            -46.7221  YYY=            -57.1760  ZZZ=             -0.2590  XYY=             17.3259
  XXY=             22.5542  XXZ=              1.0289  XZZ=             21.3164  YZZ=            -20.4149
  YYZ=              0.1566  XYZ=              0.3592
 Hexadecapole moment (field-independent basis, Debye-Ang**3):
 XXXX=          -9231.7784 YYYY=          -3043.3189 ZZZZ=           -351.2510 XXXY=           -196.9402
 XXXZ=             -3.8154 YYYX=           -165.1895 YYYZ=             -1.1232 ZZZX=             -0.0931
 ZZZY=             -0.4794 XXYY=          -2224.2344 XXZZ=          -1711.7841 YYZZ=           -567.3056
 XXYZ=             -1.0361 YYXZ=             -1.0106 ZZXY=            -29.3184
 N-N= 1.943402165118D+03 E-N=-8.463717913320D+03  KE= 1.917320724835D+03
 D1PCM: PCM CHGder 1st derivatives, ID1Alg=3 FixD1E=F DoIter=F DoCFld=F I1PDM=0.
 Calling FoFJK, ICntrl=      2127 FMM=F ISym2X=0 I1Cent= 0 IOpClX= 0 NMat=1 NMatS=1 NMatT=0.
 ***** Axes restored to original set *****
 -------------------------------------------------------------------
 Center     Atomic                   Forces (Hartrees/Bohr)
 Number     Number              X              Y              Z
 -------------------------------------------------------------------
      1        6          -0.006205912    0.000330413   -0.000058165
      2        6           0.004495972   -0.003681317    0.000363922
      3        6          -0.003456351    0.002936450   -0.000504184
      4        7           0.007057435   -0.031288092    0.001705848
      5        6           0.053347593   -0.024460715    0.001204575
      6        8          -0.024179617    0.068797321   -0.003148739
      7        7           0.027487960   -0.023269781    0.001042943
      8        6          -0.060036197   -0.002806328   -0.000332491
      9        6           0.021969812    0.023778920   -0.000781009
     10        6           0.011439290   -0.010341641    0.001073640
     11        6          -0.019549473    0.005273493   -0.000609982
     12        6           0.015255887    0.023510681   -0.000773006
     13        6          -0.010513829   -0.046439580    0.002840977
     14        1           0.003747211    0.009827938   -0.000468208
     15        1          -0.001156064   -0.004452828    0.009290920
     16        1          -0.000534433   -0.005084499   -0.009065088
     17        1           0.000379234    0.004188684    0.009209364
     18        1           0.001034156    0.003633298   -0.009310718
     19        1          -0.001113367   -0.003408896   -0.009378157
     20        1          -0.001342618   -0.002180688    0.009856866
     21        1          -0.001698634    0.017667765   -0.000927280
     22        1          -0.009755201    0.002307226   -0.000260935
     23        1          -0.003290473   -0.001291757    0.000028637
     24        1           0.003446376    0.005886119   -0.000221205
     25       16          -0.000488337   -0.001048097    0.000459384
     26        9           0.052673590   -0.000088614    0.001785980
     27        9           0.000131041    0.017288987    0.045660788
     28        9           0.003421331    0.010777972   -0.048048385
     29       17          -0.004580515    0.005547487   -0.000831602
     30        9          -0.009164690   -0.058513354    0.003440583
     31        9          -0.048821175    0.016603434   -0.003245272
 -------------------------------------------------------------------
 Cartesian Forces:  Max     0.068797321 RMS     0.019293941

 GradGradGradGradGradGradGradGradGradGradGradGradGradGradGradGradGradGrad
 Berny optimization.
 FormGI is forming the generalized inverse of G from B-inverse, IUseBI=4.
 GSVD:  received Info=                   1 from GESDD.
 Internal  Forces:  Max     0.071305536 RMS     0.014348433
 Search for a local minimum.
 Step number   1 out of a maximum of  166
 All quantities printed in internal units (Hartrees-Bohrs-Radians)
 Mixed Optimization -- RFO/linear search
 Second derivative matrix not updated -- first step.
 ITU=  0
     Eigenvalues ---    0.00230   0.00371   0.00473   0.01075   0.01075
     Eigenvalues ---    0.01213   0.01533   0.01815   0.01837   0.01874
     Eigenvalues ---    0.01999   0.02044   0.02164   0.02167   0.02189
     Eigenvalues ---    0.02200   0.02219   0.02240   0.03816   0.04528
     Eigenvalues ---    0.04973   0.05568   0.05744   0.05852   0.08012
     Eigenvalues ---    0.08676   0.08693   0.09170   0.11954   0.12632
     Eigenvalues ---    0.12937   0.12948   0.12963   0.12968   0.16000
     Eigenvalues ---    0.16000   0.16000   0.16000   0.16000   0.16000
     Eigenvalues ---    0.16000   0.16733   0.21957   0.21998   0.22000
     Eigenvalues ---    0.22059   0.23435   0.23478   0.23501   0.24999
     Eigenvalues ---    0.25000   0.25000   0.25000   0.25000   0.25000
     Eigenvalues ---    0.25000   0.25000   0.29438   0.30040   0.30159
     Eigenvalues ---    0.32334   0.32365   0.32370   0.32378   0.32501
     Eigenvalues ---    0.32516   0.32650   0.34544   0.34687   0.34712
     Eigenvalues ---    0.34723   0.34815   0.35572   0.36433   0.37648
     Eigenvalues ---    0.38695   0.40113   0.40184   0.40524   0.42309
     Eigenvalues ---    0.42905   0.44813   0.46040   0.47320   0.52085
     Eigenvalues ---    0.52922   0.94711
 RFO step:  Lambda=-7.67054854D-02 EMin= 2.30000000D-03
 Linear search not attempted -- first point.
 Maximum step size (   0.300) exceeded in Quadratic search.
    -- Step size scaled by   0.659
 Iteration  1 RMS(Cart)=  0.07452970 RMS(Int)=  0.00092800
 Iteration  2 RMS(Cart)=  0.00167908 RMS(Int)=  0.00016899
 Iteration  3 RMS(Cart)=  0.00000086 RMS(Int)=  0.00016899
 Variable       Old X    -DE/DX   Delta X   Delta X   Delta X     New X
                                 (Linear)    (Quad)   (Total)
    R1        2.87647   0.00410   0.00000   0.00714   0.00714   2.88361
    R2        2.09671  -0.00990   0.00000  -0.01617  -0.01617   2.08054
    R3        2.09910  -0.00998   0.00000  -0.01636  -0.01636   2.08274
    R4        2.09937  -0.01008   0.00000  -0.01652  -0.01652   2.08285
    R5        2.89098  -0.00471   0.00000  -0.00836  -0.00836   2.88261
    R6        2.10181  -0.00971   0.00000  -0.01598  -0.01598   2.08584
    R7        2.10158  -0.00962   0.00000  -0.01581  -0.01581   2.08577
    R8        2.73366   0.00465   0.00000   0.00660   0.00660   2.74026
    R9        2.10172  -0.00925   0.00000  -0.01522  -0.01522   2.08651
   R10        2.10237  -0.00932   0.00000  -0.01534  -0.01534   2.08702
   R11        2.57027   0.00587   0.00000   0.00638   0.00638   2.57665
   R12        1.95231  -0.01776   0.00000  -0.02341  -0.02341   1.92891
   R13        2.30835   0.07131   0.00000   0.04587   0.04587   2.35422
   R14        2.57818  -0.01387   0.00000  -0.01529  -0.01529   2.56289
   R15        2.71401  -0.05605   0.00000  -0.07725  -0.07725   2.63675
   R16        2.67852  -0.00315   0.00000  -0.00436  -0.00438   2.67414
   R17        2.64677   0.00518   0.00000   0.00714   0.00700   2.65377
   R18        2.68477  -0.02393   0.00000  -0.03250  -0.03239   2.65238
   R19        2.01581   0.00911   0.00000   0.01324   0.01324   2.02905
   R20        2.62020  -0.00126   0.00000  -0.00060  -0.00070   2.61949
   R21        2.04756   0.00167   0.00000   0.00255   0.00255   2.05011
   R22        2.62826  -0.00017   0.00000   0.00002   0.00004   2.62830
   R23        3.31583  -0.00707   0.00000  -0.01234  -0.01234   3.30349
   R24        2.67168  -0.02137   0.00000  -0.02826  -0.02813   2.64355
   R25        2.03410   0.00508   0.00000   0.00758   0.00758   2.04169
   R26        3.51033  -0.01513   0.00000  -0.03353  -0.03353   3.47680
   R27        3.23187  -0.05171   0.00000  -0.08040  -0.08040   3.15147
   R28        3.23144  -0.04659   0.00000  -0.07240  -0.07240   3.15904
   R29        3.23421  -0.04733   0.00000  -0.07385  -0.07385   3.16036
   R30        3.23127  -0.05933   0.00000  -0.09217  -0.09217   3.13910
   R31        3.22976  -0.05047   0.00000  -0.07824  -0.07824   3.15152
    A1        1.90870   0.00431   0.00000   0.01244   0.01238   1.92108
    A2        1.92179   0.00262   0.00000   0.00704   0.00701   1.92880
    A3        1.92285   0.00229   0.00000   0.00618   0.00615   1.92900
    A4        1.90243  -0.00328   0.00000  -0.00878  -0.00883   1.89360
    A5        1.89937  -0.00302   0.00000  -0.00790  -0.00794   1.89142
    A6        1.90842  -0.00305   0.00000  -0.00932  -0.00933   1.89908
    A7        1.93654   0.00088   0.00000   0.00318   0.00318   1.93971
    A8        1.90519   0.00084   0.00000   0.00420   0.00421   1.90939
    A9        1.90332   0.00112   0.00000   0.00512   0.00512   1.90844
   A10        1.90773  -0.00068   0.00000  -0.00246  -0.00247   1.90526
   A11        1.91239  -0.00099   0.00000  -0.00355  -0.00357   1.90882
   A12        1.89826  -0.00120   0.00000  -0.00666  -0.00668   1.89158
   A13        1.92912  -0.00125   0.00000  -0.00118  -0.00118   1.92795
   A14        1.91519  -0.00035   0.00000  -0.00228  -0.00229   1.91290
   A15        1.90851   0.00009   0.00000  -0.00062  -0.00063   1.90789
   A16        1.90319   0.00194   0.00000   0.00715   0.00715   1.91034
   A17        1.90241   0.00180   0.00000   0.00701   0.00700   1.90941
   A18        1.90520  -0.00222   0.00000  -0.01016  -0.01018   1.89502
   A19        2.12563   0.00149   0.00000   0.00331   0.00331   2.12894
   A20        2.07890  -0.00019   0.00000  -0.00010  -0.00010   2.07880
   A21        2.07864  -0.00130   0.00000  -0.00321  -0.00321   2.07543
   A22        2.08444  -0.00252   0.00000  -0.00507  -0.00507   2.07937
   A23        2.07481  -0.03096   0.00000  -0.06242  -0.06242   2.01239
   A24        2.12393   0.03348   0.00000   0.06750   0.06750   2.19143
   A25        2.24824  -0.04523   0.00000  -0.09118  -0.09118   2.15706
   A26        2.18089   0.00210   0.00000   0.00327   0.00336   2.18425
   A27        2.03567   0.00052   0.00000   0.00009   0.00017   2.03584
   A28        2.06662  -0.00262   0.00000  -0.00335  -0.00352   2.06309
   A29        2.11954  -0.00772   0.00000  -0.01805  -0.01797   2.10158
   A30        2.08692  -0.00036   0.00000  -0.00271  -0.00275   2.08417
   A31        2.07672   0.00808   0.00000   0.02076   0.02072   2.09744
   A32        2.11450  -0.00576   0.00000  -0.00858  -0.00883   2.10567
   A33        2.09496  -0.00031   0.00000  -0.00458  -0.00445   2.09050
   A34        2.07371   0.00607   0.00000   0.01316   0.01329   2.08700
   A35        2.09814   0.00954   0.00000   0.02226   0.02218   2.12031
   A36        2.09128  -0.00220   0.00000  -0.00594  -0.00590   2.08538
   A37        2.09374  -0.00734   0.00000  -0.01630  -0.01626   2.07747
   A38        2.11859  -0.02042   0.00000  -0.04497  -0.04480   2.07379
   A39        2.02399   0.01485   0.00000   0.03539   0.03530   2.05929
   A40        2.14060   0.00557   0.00000   0.00959   0.00951   2.15011
   A41        2.04897   0.02697   0.00000   0.05270   0.05295   2.10192
   A42        2.12753  -0.01477   0.00000  -0.02893  -0.02905   2.09848
   A43        2.10668  -0.01221   0.00000  -0.02377  -0.02389   2.08279
   A44        1.61368   0.00758   0.00000   0.02499   0.02497   1.63866
   A45        1.56920   0.01234   0.00000   0.03879   0.03875   1.60796
   A46        1.57700   0.01074   0.00000   0.03492   0.03489   1.61190
   A47        1.61203   0.00961   0.00000   0.02989   0.02987   1.64190
   A48        1.57416  -0.00074   0.00000  -0.00263  -0.00361   1.57055
   A49        1.57159  -0.00064   0.00000  -0.00209  -0.00300   1.56859
   A50        1.52783  -0.00823   0.00000  -0.02711  -0.02709   1.50074
   A51        1.56807  -0.01173   0.00000  -0.03690  -0.03687   1.53121
   A52        1.57060  -0.00050   0.00000  -0.00151  -0.00261   1.56799
   A53        1.56891  -0.01134   0.00000  -0.03681  -0.03677   1.53213
   A54        1.56644  -0.00013   0.00000  -0.00022  -0.00125   1.56519
   A55        1.52966  -0.00896   0.00000  -0.02778  -0.02776   1.50190
   A56        3.14151  -0.00065   0.00000  -0.00212  -0.00212   3.13939
   A57        3.22571   0.01719   0.00000   0.05488   0.05484   3.28055
   A58        3.14621   0.02308   0.00000   0.07372   0.07365   3.21985
   A59        3.14591  -0.00060   0.00000  -0.00188  -0.00188   3.14403
   A60        3.14463  -0.00024   0.00000  -0.00096  -0.00092   3.14371
   A61        3.13723   0.00036   0.00000   0.00144   0.00150   3.13873
    D1        3.14064   0.00002   0.00000   0.00001   0.00001   3.14065
    D2        1.03718  -0.00023   0.00000  -0.00167  -0.00167   1.03551
    D3       -1.03452   0.00007   0.00000   0.00093   0.00094  -1.03358
    D4        1.05066  -0.00023   0.00000  -0.00126  -0.00128   1.04939
    D5       -1.05279  -0.00049   0.00000  -0.00294  -0.00296  -1.05575
    D6       -3.12449  -0.00019   0.00000  -0.00034  -0.00035  -3.12484
    D7       -1.05568   0.00039   0.00000   0.00182   0.00183  -1.05385
    D8        3.12405   0.00014   0.00000   0.00014   0.00015   3.12420
    D9        1.05235   0.00044   0.00000   0.00275   0.00276   1.05511
   D10        3.13273   0.00004   0.00000   0.00006   0.00006   3.13280
   D11        1.03314  -0.00135   0.00000  -0.00661  -0.00660   1.02653
   D12       -1.05609   0.00154   0.00000   0.00760   0.00759  -1.04850
   D13       -1.04851   0.00119   0.00000   0.00570   0.00569  -1.04282
   D14        3.13508  -0.00019   0.00000  -0.00097  -0.00097   3.13411
   D15        1.04586   0.00269   0.00000   0.01323   0.01322   1.05907
   D16        1.03007  -0.00127   0.00000  -0.00602  -0.00601   1.02406
   D17       -1.06953  -0.00266   0.00000  -0.01269  -0.01267  -1.08220
   D18        3.12443   0.00023   0.00000   0.00151   0.00152   3.12595
   D19        3.13691   0.00012   0.00000   0.00042   0.00042   3.13733
   D20        0.00107   0.00012   0.00000   0.00039   0.00039   0.00146
   D21       -1.03952   0.00014   0.00000   0.00145   0.00144  -1.03807
   D22        2.10783   0.00014   0.00000   0.00141   0.00141   2.10924
   D23        1.03888  -0.00035   0.00000  -0.00253  -0.00253   1.03635
   D24       -2.09696  -0.00036   0.00000  -0.00257  -0.00256  -2.09952
   D25        0.01044  -0.00004   0.00000  -0.00031  -0.00032   0.01011
   D26       -3.12998  -0.00030   0.00000  -0.00194  -0.00193  -3.13191
   D27       -3.13691  -0.00004   0.00000  -0.00026  -0.00028  -3.13719
   D28        0.00586  -0.00029   0.00000  -0.00190  -0.00189   0.00397
   D29        3.13167   0.00024   0.00000   0.00166   0.00169   3.13336
   D30       -0.00872   0.00001   0.00000   0.00004   0.00001  -0.00870
   D31       -0.01447  -0.00005   0.00000  -0.00037  -0.00037  -0.01484
   D32        3.12387   0.00011   0.00000   0.00083   0.00083   3.12470
   D33        3.13469   0.00024   0.00000   0.00163   0.00162   3.13631
   D34       -0.00532   0.00016   0.00000   0.00106   0.00106  -0.00426
   D35       -0.00360   0.00008   0.00000   0.00041   0.00040  -0.00320
   D36        3.13958  -0.00001   0.00000  -0.00016  -0.00017   3.13942
   D37       -3.13486  -0.00019   0.00000  -0.00132  -0.00133  -3.13618
   D38        0.00136  -0.00006   0.00000  -0.00043  -0.00043   0.00093
   D39        0.00370  -0.00003   0.00000  -0.00020  -0.00020   0.00351
   D40        3.13992   0.00009   0.00000   0.00069   0.00070   3.14062
   D41        0.00320  -0.00009   0.00000  -0.00065  -0.00066   0.00254
   D42       -3.13621  -0.00012   0.00000  -0.00092  -0.00093  -3.13714
   D43       -3.13997  -0.00001   0.00000  -0.00011  -0.00011  -3.14008
   D44        0.00381  -0.00004   0.00000  -0.00038  -0.00039   0.00342
   D45       -0.00351   0.00003   0.00000   0.00031   0.00033  -0.00319
   D46        3.12962   0.00025   0.00000   0.00186   0.00188   3.13149
   D47       -3.13980  -0.00007   0.00000  -0.00051  -0.00051  -3.14031
   D48       -0.00667   0.00015   0.00000   0.00103   0.00104  -0.00563
   D49        0.00313  -0.00012   0.00000  -0.00074  -0.00073   0.00241
   D50        3.14131   0.00003   0.00000   0.00028   0.00029  -3.14159
   D51       -3.12998  -0.00037   0.00000  -0.00233  -0.00232  -3.13230
   D52        0.00819  -0.00021   0.00000  -0.00131  -0.00130   0.00689
   D53       -0.00294   0.00014   0.00000   0.00086   0.00086  -0.00208
   D54        3.13650   0.00016   0.00000   0.00113   0.00112   3.13762
   D55       -3.14088  -0.00004   0.00000  -0.00027  -0.00026  -3.14114
   D56       -0.00144  -0.00002   0.00000  -0.00001   0.00000  -0.00144
   D57       -0.01513  -0.00009   0.00000  -0.00057  -0.00056  -0.01569
   D58       -1.58923   0.00014   0.00000   0.00043   0.00045  -1.58877
   D59        1.55673  -0.00023   0.00000  -0.00101  -0.00105   1.55568
   D60        3.12343   0.00015   0.00000   0.00038   0.00036   3.12379
   D61        3.12872  -0.00016   0.00000  -0.00095  -0.00093   3.12779
   D62        1.55462   0.00006   0.00000   0.00005   0.00009   1.55471
   D63       -1.58261  -0.00030   0.00000  -0.00139  -0.00141  -1.58402
   D64       -0.01591   0.00007   0.00000   0.00001  -0.00001  -0.01592
         Item               Value     Threshold  Converged?
 Maximum Force            0.071306     0.000450     NO 
 RMS     Force            0.014348     0.000300     NO 
 Maximum Displacement     0.309160     0.001800     NO 
 RMS     Displacement     0.075406     0.001200     NO 
 Predicted change in Energy=-3.735567D-02
 GradGradGradGradGradGradGradGradGradGradGradGradGradGradGradGradGradGrad

                          Input orientation:                          
 ---------------------------------------------------------------------
 Center     Atomic      Atomic             Coordinates (Angstroms)
 Number     Number       Type             X           Y           Z
 ---------------------------------------------------------------------
      1          6           0       -1.818562    1.603048   -0.058159
      2          6           0       -0.398778    1.045723   -0.012302
      3          6           0        0.633851    2.168191   -0.037427
      4          7           0        1.976469    1.623232    0.018585
      5          6           0        3.081275    2.422202    0.004546
      6          8           0        2.935333    3.658338   -0.047251
      7          7           0        4.269221    1.769498    0.050440
      8          6           0        5.505967    2.415342    0.035168
      9          6           0        5.692797    3.815678   -0.046309
     10          6           0        6.644766    1.596987    0.109559
     11          6           0        7.915021    2.151902    0.107128
     12          6           0        8.106768    3.527172    0.027821
     13          6           0        6.986101    4.361022   -0.047970
     14          1           0       -2.548628    0.779141   -0.040213
     15          1           0       -1.974223    2.188116   -0.979125
     16          1           0       -2.006841    2.253017    0.811856
     17          1           0       -0.236277    0.384391   -0.880954
     18          1           0       -0.269415    0.449889    0.907745
     19          1           0        0.472937    2.838891    0.824763
     20          1           0        0.514121    2.753954   -0.966003
     21          1           0        2.099965    0.611061    0.065001
[...]
 ,-0.00825548,0.00000510,-0.00000077,-0.00000174,0.00000123,-0.00000151
 ,-0.00000018,0.00000021,0.00000007,0.00000047,0.00000022,0.00000178,0.
 00000360,-0.00000035,-0.00000003,0.00000067,0.00002536,-0.00000181,-0.
 00001611,0.00001286,-0.00000854,-0.00000441,-0.00000438,-0.00002360,-0
 .00004039,0.00129562,-0.00107600,-0.00000319,0.00008227,0.00001870,-0.
 00007078,0.00029722,-0.00044649,-0.00003059,-0.10106768,0.01218592,-0.
 06267864,0.15469756,-0.00001010,-0.00002155,-0.00001364,-0.00001773,0.
 00004029,0.00003986,0.00015550,-0.00013894,-0.00001649,-0.00079763,-0.
 00009905,-0.00031069,0.00194813,-0.00099466,-0.00002300,-0.00069916,0.
 00059258,0.00031944,-0.00263751,-0.00072054,-0.00021485,0.00231547,0.0
 0277120,0.00015532,-0.00069526,-0.00493002,0.00306395,0.00066816,-0.00
 068007,0.00032291,-0.00013543,-0.00096181,-0.00104471,-0.00442381,-0.0
 0228819,0.00202371,0.01622301,-0.00390567,0.01967498,-0.00001314,0.000
 00094,0.00000336,-0.00000128,0.00000281,0.00000012,-0.00000144,0.00000
 005,0.00000124,0.00000152,-0.00000159,-0.00000522,-0.00000051,-0.00000
 401,-0.00000157,-0.00005994,0.00000815,0.00004691,-0.00002415,0.000009
 85,0.00000966,0.00000877,0.00004902,0.00006280,0.00071998,-0.00151100,
 0.00069499,0.00006102,-0.00012076,-0.00000710,-0.00002768,0.00021310,0
 .00031216,0.00983886,-0.06544079,0.01702728,0.00444532,0.08892179,0.00
 000961,0.00002154,0.00001218,0.00001598,-0.00003897,-0.00003924,-0.000
 14029,0.00012634,0.00001831,0.00076148,0.00009894,0.00030786,-0.001866
 32,0.00094032,0.00006910,0.00068246,-0.00058063,-0.00030605,0.00244286
 ,0.00080430,0.00006237,-0.00156855,-0.00184176,0.00059310,0.00030670,0
 .00444798,-0.00059265,0.00020204,0.00049884,-0.00026093,-0.00125014,-0
 .00038345,0.00056944,0.00541200,0.00590517,-0.00199281,-0.01870115,-0.
 00802584,-0.01039449,0.00001234,-0.00000077,-0.00000338,0.00000143,-0.
 00000293,-0.00000091,0.00000053,-0.00000056,0.00000040,0.00000048,0.00
 000238,0.00000757,0.00000131,0.00000331,0.00000155,0.00005459,-0.00000
 731,-0.00003836,0.00002534,-0.00001150,-0.00001101,-0.00000439,-0.0000
 5006,-0.00007459,-0.00011115,0.00085592,-0.00091989,0.00001418,0.00011
 186,-0.00004014,0.00019354,-0.00043416,-0.00013991,-0.06012534,0.02089
 444,-0.14302982,0.09943242,-0.00116556,0.21013386,-0.00001096,-0.00002
 279,-0.00001399,-0.00001871,0.00004184,0.00004117,0.00014206,-0.000123
 19,-0.00005088,-0.00079109,-0.00009421,-0.00028318,0.00193135,-0.00079
 086,-0.00015009,-0.00073805,0.00051530,0.00037912,-0.00209215,-0.00131
 371,0.00001798,0.00018432,0.00154186,-0.00145709,0.00276939,-0.0063293
 7,0.00292782,-0.00030223,-0.00048936,0.00023587,0.00052021,0.00040837,
 -0.00091790,-0.00251938,-0.00218982,0.00009279,-0.01502311,0.01122038,
 0.01093166,-0.00001420,0.00000042,0.00000349,-0.00000040,0.00000210,0.
 00000064,-0.00000094,0.00000068,0.00000128,0.00000038,-0.00000120,-0.0
 0000562,-0.00000155,-0.00000600,-0.00000138,-0.00005329,0.00000678,0.0
 0004362,-0.00002579,0.00001027,0.00001258,0.00001224,0.00006680,0.0000
 7728,0.00071158,0.00058131,0.00042788,0.00008222,-0.00010228,0.0001288
 7,0.00094737,-0.00008404,0.00060802,-0.14124236,-0.00297999,0.06481563
 ,-0.04340257,0.00347012,0.00345212,0.20602476,-0.00000823,-0.00001822,
 -0.00001086,-0.00001453,0.00003392,0.00003405,0.00012179,-0.00010657,-
 0.00001902,-0.00065618,-0.00006282,-0.00023639,0.00163695,-0.00090957,
 -0.00009437,-0.00051572,0.00059456,0.00027422,-0.00223183,-0.00064796,
 -0.00022840,0.00142659,-0.00049059,-0.00070969,0.00262654,-0.00242727,
 0.00231738,-0.00169156,-0.00061190,-0.00001842,-0.00036002,0.00218440,
 0.00014966,-0.00096787,-0.00457783,0.00321492,-0.01963329,-0.00163380,
 0.01217804,-0.00001081,0.00000073,0.00000282,-0.00000093,0.00000230,0.
 00000005,-0.00000092,0.00000017,0.00000112,0.00000089,-0.00000143,-0.0
 0000441,-0.00000101,-0.00000375,-0.00000141,-0.00004843,0.00000560,0.0
 0003816,-0.00002080,0.00000844,0.00000801,0.00001094,0.00004550,0.0000
 5329,0.00002786,0.00016851,0.00034114,-0.00002638,-0.00007034,-0.00008
 560,-0.00106762,-0.00136805,0.00039201,0.00032282,-0.06202923,0.000876
 16,0.00803524,0.00589682,-0.00024570,-0.02667266,0.09539624,0.00000916
 ,0.00001934,0.00001151,0.00001537,-0.00003517,-0.00003463,-0.00011868,
 0.00010261,0.00003581,0.00067381,0.00006506,0.00025003,-0.00167462,0.0
 0077200,0.00010100,0.00056294,-0.00050622,-0.00029583,0.00190849,0.001
 13737,0.00008661,0.00019341,-0.00139778,0.00076238,-0.00226959,0.00607
 260,-0.00227743,0.00045355,0.00041467,-0.00010980,0.00016478,-0.000848
 51,0.00017337,0.00059172,0.00364582,-0.00080650,0.01555047,-0.00966533
 ,-0.00255258,0.00001169,-0.00000044,-0.00000299,0.00000057,-0.00000204
 ,-0.00000072,0.00000062,-0.00000066,-0.00000047,0.00000043,0.00000148,
 0.00000569,0.00000113,0.00000431,0.00000101,0.00004601,-0.00000563,-0.
 00003585,0.00002218,-0.00000983,-0.00001057,-0.00001254,-0.00005463,-0
 .00006704,-0.00035632,-0.00032036,-0.00022765,-0.00001598,0.00009496,-
 0.00000994,0.00053802,0.00093867,-0.00076950,0.06328755,0.00428072,-0.
 10544562,-0.01824391,0.00157417,0.00524127,-0.09669302,0.01705538,0.15
 178095,0.00000507,0.00001263,0.00000681,0.00001312,-0.00002295,-0.0000
 2387,-0.00008666,0.00007765,0.00002880,0.00045140,0.00003166,0.0001488
 8,-0.00109382,0.00070322,0.00006898,0.00037271,-0.00035639,-0.00014693
 ,0.00137938,0.00063892,0.00006279,0.00040110,-0.00125080,-0.00083999,-
 0.00174393,0.00137691,-0.00161182,0.00005528,0.00031429,0.00017868,-0.
 00047358,-0.00054671,-0.00090400,0.00351866,0.00443425,0.00111796,-0.0
 1149417,-0.00595284,0.00945594,0.00000639,-0.00000154,-0.00000247,0.00
 000179,-0.00000174,0.00000079,0.00000097,0.00000064,-0.00000114,-0.000
 00107,0.00000111,0.00000168,0.00000034,0.00000037,0.00000135,0.0000327
 2,-0.00000223,-0.00002814,0.00001778,-0.00000900,-0.00000432,-0.000008
 85,-0.00003005,-0.00003752,0.00108048,-0.00072098,0.00060646,0.0000702
 5,0.00005795,0.00010310,0.00027888,-0.00047234,0.00040770,-0.13157869,
 0.03700522,0.05568893,0.00545436,0.00009639,-0.00324507,-0.00421157,0.
 00014677,0.00626804,0.20547077,-0.00001143,-0.00002703,-0.00001517,-0.
 00002125,0.00004748,0.00004850,0.00018146,-0.00016067,-0.00002770,-0.0
 0096560,-0.00009637,-0.00035953,0.00241644,-0.00128694,-0.00014985,-0.
 00085755,0.00085888,0.00048660,-0.00325617,-0.00072498,-0.00018932,0.0
 0287016,0.00301826,0.00001097,0.00007446,-0.00695600,-0.00186747,0.000
 49769,-0.00083818,0.00013484,-0.00002610,-0.00032447,0.00151701,-0.004
 98703,-0.00472130,-0.00243624,0.02510530,-0.00683475,-0.01443804,-0.00
 001560,0.00000141,0.00000422,-0.00000183,0.00000327,-0.00000017,-0.000
 00157,-0.00000002,0.00000183,0.00000220,-0.00000170,-0.00000583,-0.000
 00124,-0.00000493,-0.00000210,-0.00007580,0.00000732,0.00005660,-0.000
 03060,0.00001289,0.00001043,0.00001394,0.00005983,0.00007905,0.0008035
 1,-0.00167790,-0.00019227,0.00005667,-0.00014550,0.00000885,0.00003016
 ,0.00020222,-0.00049745,0.03315367,-0.07962969,-0.02546587,0.00196772,
 0.00616253,-0.00367975,0.00469548,0.00711067,-0.00367564,-0.02895229,0
 .09747531,-0.00000414,-0.00000991,-0.00000620,-0.00001047,0.00001898,0
 .00001918,0.00007161,-0.00006258,-0.00002189,-0.00037255,-0.00003945,-
 0.00011842,0.00092705,-0.00050417,-0.00008276,-0.00035906,0.00031256,0
 .00019003,-0.00119875,-0.00038750,-0.00010911,0.00078146,0.00070255,0.
 00030584,-0.00077865,-0.00223577,0.00062117,-0.00036939,-0.00026289,-0
 .00003879,0.00104888,0.00067246,0.00031509,-0.00285245,-0.00436903,-0.
 00039936,0.01171135,0.00647336,-0.00103295,-0.00000570,0.00000105,0.00
 000187,-0.00000084,0.00000115,-0.00000060,-0.00000108,-0.00000042,0.00
 000158,0.00000117,-0.00000058,-0.00000074,-0.00000015,-0.00000170,-0.0
 0000120,-0.00002860,0.00000191,0.00002460,-0.00001314,0.00000546,0.000
 00303,0.00000395,0.00002780,0.00002806,0.00029338,-0.00070181,-0.00035
 049,-0.00000354,-0.00006983,-0.00002833,-0.00007679,0.00019869,-0.0001
 8402,0.05418061,-0.02875780,-0.09688795,0.01648991,-0.01189057,-0.0448
 3211,0.00613193,-0.00023033,-0.00070817,-0.09525946,0.02444738,0.14942
 726,-0.00001843,-0.00003969,-0.00002410,-0.00004043,0.00007355,0.00007
 284,0.00020329,-0.00023972,-0.00007799,-0.00128838,-0.00000545,-0.0002
 6757,0.00231764,-0.00185456,-0.00066901,-0.00086381,0.00108125,0.00052
 243,-0.00513582,0.00137507,-0.00029124,0.00365432,-0.00730985,0.001031
 84,-0.00076713,0.00207690,-0.00028064,-0.03759988,0.03070050,-0.009270
 29,-0.11325218,0.05667373,-0.01923830,-0.00886899,0.00933697,-0.002842
 11,0.00138250,0.00065150,-0.00065178,-0.00002291,0.00000177,0.00000602
 ,-0.00000097,0.00000367,0.00000045,-0.00000147,0.00000081,0.00000261,0
 .00000167,-0.00000178,-0.00000861,0.00000018,-0.00000855,-0.00000181,-
 0.00008516,0.00001136,0.00007021,-0.00003773,0.00001494,0.00001469,0.0
 0001894,0.00008150,0.00008377,0.00022356,0.00019000,0.00003020,0.00065
 058,0.00070887,0.00030012,0.00087289,-0.00072424,0.00066999,-0.0009485
 0,-0.00300307,0.00027689,-0.00040101,0.00084887,-0.00088712,0.00069796
 ,0.00050669,-0.00054664,-0.00053707,0.00099395,0.00045653,0.15921258,0
 .00000876,0.00001863,0.00001146,0.00001631,-0.00003404,-0.00003412,-0.
 00011142,0.00011049,0.00003200,0.00062292,0.00005704,0.00020264,-0.001
 34248,0.00074296,0.00013854,0.00058005,-0.00044093,-0.00023435,0.00210
 880,0.00000150,0.00007124,-0.00307341,0.00029067,0.00022094,0.00188496
 ,-0.00009300,0.00012770,0.00343509,0.00082732,0.00086151,0.05674257,-0
 .08299536,0.01574337,0.03567726,-0.02513947,0.00831962,-0.00490231,-0.
 00312124,0.00055260,0.00001097,-0.00000083,-0.00000280,0.00000033,-0.0
 0000151,-0.00000031,0.00000084,-0.00000044,-0.00000123,-0.00000013,0.0
 0000125,0.00000412,0.00000060,0.00000450,0.00000109,0.00004366,-0.0000
 0639,-0.00003632,0.00001786,-0.00000627,-0.00000894,-0.00000637,-0.000
 03836,-0.00004628,-0.00007710,0.00009230,-0.00007703,-0.00094222,0.000
 94231,-0.00069189,0.00116666,0.00121559,-0.00042731,0.00142287,0.00268
 483,-0.00017578,0.00065599,-0.00103921,0.00133397,-0.00085519,-0.00048
 224,0.00059657,0.00089270,-0.00130311,-0.00075024,-0.09319768,0.108798
 58,-0.00000584,-0.00000977,-0.00000645,-0.00000648,0.00001650,0.000017
 90,0.00005277,-0.00006602,0.00000259,-0.00032367,-0.00000983,-0.000065
 79,0.00060826,-0.00036567,-0.00036524,-0.00019971,0.00020951,0.0001225
 4,-0.00096301,0.00026406,-0.00018719,0.00023041,-0.00001164,0.00578040
 ,-0.00037511,-0.00007256,-0.00103591,-0.00546478,0.00421483,0.00277730
 ,-0.01921951,0.01570064,-0.02767941,-0.00643648,0.00495926,0.00244866,
 0.00030116,0.00117885,0.00409629,-0.00000517,0.00000066,0.00000131,-0.
 00000044,0.00000086,0.00000018,0.00000003,0.00000016,0.00000051,-0.000
 00024,-0.00000110,-0.00000223,-0.00000087,-0.00000244,-0.00000073,-0.0
 0002672,0.00000159,0.00001795,-0.00000562,0.00000455,0.00000140,0.0000
 0225,0.00001937,0.00001649,0.00007426,-0.00005676,-0.00042360,0.000706
 53,-0.00046427,-0.00279008,0.00032165,-0.00061400,-0.00243166,-0.00033
 549,-0.00068178,0.00031965,-0.00003317,0.00006701,-0.00010871,0.000132
 96,0.00011686,-0.00012927,-0.00028198,0.00047295,0.00022164,0.03102656
 ,-0.02514436,0.01927152,-0.00000094,-0.00000175,-0.00000116,-0.0000008
 0,0.00000329,0.00000309,0.00001221,-0.00000792,-0.00000396,-0.00006312
 ,-0.00001824,-0.00002785,0.00012410,-0.00001813,0.00001636,-0.00006790
 ,-0.00000149,0.00002610,-0.00014182,-0.00003691,-0.00000656,0.00031903
 ,0.00033500,-0.00000314,-0.00023265,0.00039350,-0.00014021,0.00014914,
 -0.00003471,0.00004105,0.00006682,-0.00026878,0.00002950,-0.00045718,-
 0.00052319,0.00001464,0.00276941,-0.00062008,0.00017226,-0.00000148,-0
 .00000024,0.00000014,0.00000035,-0.00000003,0.00000021,-0.00000004,0.0
 0000024,0.00000021,-0.00000006,0.00000012,-0.00000039,-0.00000041,-0.0
 0000128,0.,-0.00000452,0.00000084,0.00000368,-0.00000090,-0.00000036,0
 .00000122,-0.00000034,0.00000389,0.00000461,0.00032059,0.00006518,0.00
 002369,0.00002384,-0.00001366,0.00000464,0.00017185,-0.00007676,0.0000
 3736,-0.05868007,-0.01498226,0.00196295,-0.01241556,-0.03327539,-0.018
 04196,-0.00899220,0.03617755,0.01253561,-0.02410017,-0.03440522,0.0263
 4684,0.00009022,-0.00009540,0.00002788,0.10169424,-0.00000509,-0.00001
 231,-0.00000688,-0.00000933,0.00002229,0.00002169,0.00008545,-0.000072
 33,-0.00001616,-0.00043905,-0.00005774,-0.00017321,0.00105764,-0.00053
 178,-0.00001839,-0.00037405,0.00032389,0.00018238,-0.00142742,-0.00037
 194,-0.00011016,0.00101465,0.00056537,0.00009017,0.00040901,-0.0009784
 4,0.00013080,-0.00036165,-0.00032689,0.00002318,-0.00013270,0.00047948
 ,-0.00003398,-0.00050360,-0.00059727,0.00004773,-0.00068320,-0.0016487
 1,0.00049551,-0.00000764,0.00000031,0.00000184,-0.00000054,0.00000166,
 0.00000007,-0.00000062,0.00000018,0.00000086,0.00000055,-0.00000085,-0
 .00000278,-0.00000040,-0.00000251,-0.00000084,-0.00003256,0.00000402,0
 .00002579,-0.00001349,0.00000505,0.00000562,0.00000468,0.00002794,0.00
 003639,0.00043802,0.00015357,0.00001703,0.00000627,-0.00005808,-0.0000
 0124,-0.00030587,0.00025623,-0.00010474,-0.01512338,-0.16994523,0.0150
 2883,-0.02119320,-0.02940817,-0.01658980,0.02005747,-0.04212376,-0.014
 00249,-0.01825548,-0.01609782,0.01479413,0.00038969,-0.00042279,0.0000
 9438,0.02502553,0.28643669,0.00000105,0.00000158,0.00000122,0.00000065
 ,-0.00000289,-0.00000343,-0.00001014,0.00000962,-0.00000293,0.00006116
 ,0.00000947,0.00003035,-0.00013884,0.00006395,-0.00000083,0.00004498,-
 0.00003688,-0.00001182,0.00018929,0.00003790,0.00002043,-0.00011096,-0
 .00003699,-0.00005751,-0.00012847,0.00021601,0.00013420,0.00008738,0.0
 0003707,-0.00007395,0.00002018,-0.00010757,0.00003248,-0.00000606,0.00
 006170,0.00014797,0.00018262,0.00049932,0.00217516,0.00000111,0.000000
 12,-0.00000021,0.00000006,-0.00000032,-0.00000030,-0.00000012,-0.00000
 020,0.00000049,0.00000032,0.00000043,0.00000137,0.00000003,0.00000021,
 -0.00000004,0.00000398,-0.00000105,-0.00000171,0.00000191,-0.00000076,
 -0.00000145,-0.00000040,-0.00000297,-0.00000739,-0.00001136,-0.0000153
 1,-0.00002230,0.00000309,0.00000579,-0.00000579,0.00006508,-0.00005191
 ,-0.00002263,0.00190330,0.01499815,-0.05770726,-0.02160830,-0.03225549
 ,-0.00970289,0.01299675,-0.02599453,-0.00012411,0.02581648,0.02687615,
 -0.01151469,-0.00004420,0.00004591,-0.00002983,-0.00343325,-0.02455754
 ,0.10111948,-0.00000807,-0.00001732,-0.00001059,-0.00001554,0.00003247
 ,0.00003099,0.00011180,-0.00009607,-0.00004492,-0.00061060,-0.00006941
 ,-0.00022049,0.00144805,-0.00063668,-0.00013450,-0.00057047,0.00039998
 ,0.00032406,-0.00162348,-0.00082344,0.00007447,0.00010128,0.00125202,0
 .00087694,0.00269692,-0.00504440,-0.00049140,-0.00026191,-0.00047196,-
 0.00013048,0.00031438,0.00062838,0.00101949,-0.00218852,-0.00144292,0.
 00002308,-0.00829645,0.00457158,-0.01481901,-0.00001082,0.00000042,0.0
 0000265,-0.00000019,0.00000152,0.00000029,-0.00000104,0.00000038,0.000
 00155,0.00000075,-0.00000067,-0.00000340,-0.00000056,-0.00000451,-0.00
 000123,-0.00004125,0.00000446,0.00003581,-0.00002112,0.00000658,0.0000
 0975,0.00000928,0.00004968,0.00005642,0.00064169,0.00036513,-0.0003297
 8,0.00009841,-0.00010153,-0.00010658,0.00084502,0.00037986,-0.00020129
 ,-0.10835706,-0.01876329,-0.06264859,-0.00086444,0.00201904,-0.0070799
 3,0.00541672,0.00288817,0.01709576,-0.04328190,0.00074650,-0.01710994,
 0.00054355,-0.00068549,0.00019958,-0.00058162,0.01038031,-0.01588732,0
 .15450720,-0.00001095,-0.00002367,-0.00001416,-0.00002052,0.00004387,0
 .00004221,0.00015900,-0.00013852,-0.00003151,-0.00085719,-0.00007528,-
 0.00033372,0.00205518,-0.00118189,-0.00017009,-0.00064172,0.00074049,0
 .00038858,-0.00274929,-0.00076702,-0.00005255,0.00106067,0.00020718,0.
 00143142,0.00394250,-0.00475978,-0.00091820,-0.00172159,-0.00079510,-0
 .00013451,-0.00031901,0.00226925,-0.00068248,-0.00044384,-0.00615747,-
 0.00158700,-0.01989213,-0.00311500,-0.01829848,-0.00001391,0.00000098,
 0.00000366,-0.00000107,0.00000278,0.00000002,-0.00000158,0.00000007,0.
 00000165,0.00000128,-0.00000154,-0.00000501,-0.00000004,-0.00000433,-0
 .00000180,-0.00006105,0.00000661,0.00005145,-0.00002892,0.00000926,0.0
 0001104,0.00001411,0.00005961,0.00007283,0.00021719,0.00013621,-0.0004
 3817,-0.00003264,-0.00007753,0.00005193,-0.00067420,-0.00138282,-0.000
 25711,-0.01623979,-0.06848036,-0.01909126,-0.00143158,0.00759689,-0.00
 298657,-0.00056450,0.00611744,-0.00625097,0.01078468,0.00587126,0.0026
 1710,0.00066301,-0.00066278,0.00017817,0.02237667,-0.02562006,0.040201
 03,0.00443123,0.09018123,-0.00000760,-0.00001768,-0.00001050,-0.000017
 30,0.00003371,0.00003125,0.00011573,-0.00009604,-0.00005196,-0.0006335
 5,-0.00005619,-0.00022842,0.00155941,-0.00075457,-0.00014590,-0.000558
 05,0.00046764,0.00034181,-0.00174048,-0.00104256,0.00013929,-0.0005505
 4,0.00186625,0.00013005,0.00233651,-0.00676970,0.00011645,-0.00006002,
 -0.00037064,-0.00005839,-0.00001018,0.00051112,0.00053514,-0.00088349,
 -0.00249370,0.00081646,-0.01132825,0.01068967,-0.00793273,-0.00001072,
 0.00000087,0.00000296,-0.00000043,0.00000156,-0.00000013,-0.00000149,0
 .00000006,0.00000210,0.00000111,-0.00000064,-0.00000260,-0.00000006,-0
 .00000422,-0.00000139,-0.00004329,0.00000391,0.00003828,-0.00002302,0.
 00000784,0.00000991,0.00001178,0.00005313,0.00006142,0.00052893,0.0003
 2159,-0.00018975,0.00005504,-0.00010614,-0.00005593,0.00028779,-0.0005
 5519,-0.00057815,-0.06195835,-0.02310399,-0.13170282,-0.00601784,0.001
 54903,-0.00452913,-0.00388631,-0.00917416,-0.04484099,0.00242336,-0.00
 115298,0.00515839,0.00053626,-0.00063229,0.00015977,-0.01959357,0.0246
 2182,-0.02437206,0.09946861,0.00620249,0.20715757\\-0.00000373,0.00000
 429,0.00000603,0.00000690,-0.00000061,0.00000066,-0.00002275,0.0000080
 1,0.00001736,0.00001788,-0.00000507,-0.00000445,-0.00000165,0.00000721
 ,0.00000352,-0.00000138,-0.00000503,-0.00000225,0.00000544,-0.00000199
 ,0.00000369,-0.00001027,0.00000288,-0.00001224,0.00000190,0.00000741,-
 0.00000030,0.00000873,-0.00000529,-0.00000279,-0.00001389,-0.00000473,
 -0.00000476,0.00000461,0.00000826,-0.00001185,0.00000196,-0.00000660,0
 .00000194,-0.00000047,0.00000336,0.00000548,-0.00000036,0.00000140,0.0
 0000766,0.00000188,0.00000014,0.00000422,-0.00000293,0.00000559,0.0000
 0449,-0.00000268,0.00000262,-0.00000106,0.00000480,-0.00000269,-0.0000
 0181,0.00000116,-0.00000116,0.00000494,-0.00000276,0.00000448,-0.00000
 682,-0.00000076,-0.00000183,-0.00000024,-0.00000071,-0.00000158,-0.000
 01087,0.00000196,-0.00000482,-0.00000539,-0.00001880,0.00000024,0.0000
 0233,0.00000323,-0.00000119,0.00000597,-0.00000039,0.00000184,0.000000
 72,0.00000574,-0.00000331,0.00000193,0.00000441,-0.00000533,-0.0000120
 0,0.00000709,-0.00000731,0.00000805,0.00000589,0.00000080,-0.00000217\
 \\@


 THE GREAT THING ABOUT BEING IMPERFECT IS THE JOY IT BRINGS OTHERS.
   -- SIGN OUTSIDE LAKE AGASSIZ JR. HIGH SCHOOL, FARGO, N.D.
 Job cpu time:       0 days  4 hours 28 minutes 52.3 seconds.
 File lengths (MBytes):  RWF=    727 Int=      0 D2E=      0 Chk=     23 Scr=      1
 Normal termination of Gaussian 09 at Tue Oct 30 15:59:31 2018.
WARNING: pbs_rusage is deprecated and values produced may not be accurate


=============================================================================
                                     Resource usage:
                                       CPU time:              25:10:52
   JobId:    1827389.r-man2            Elapsed time:          06:20:31
   Project:             q95            Requested time:        40:00:00
   Service Units:     25.37 
                                       Max physical memory:      800MB
                                       Max virtual memory:      1770MB
                                       Requested memory:           0MB

                                       Number of cpus:               4

                                       Max jobfs disk use:       0.7GB
                                       Requested jobfs:         20.0GB
=============================================================================

