 Entering Gaussian System, Link 0=/apps/gaussian/g09e01/g09/g09
 AtFile(1): /home/507/hio507/Basis/6-31pGd.gbs
 Initial command:
 /apps/gaussian/g09e01/g09/l1.exe "/jobfs/local/5877205.r-man2/Gau-1742.inp" -scrdir="/jobfs/local/5877205.r-man2/"
 Entering Link 1 = /apps/gaussian/g09e01/g09/l1.exe PID=      1765.
  
 Copyright (c) 1988,1990,1992,1993,1995,1998,2003,2009,2015,
            Gaussian, Inc.  All Rights Reserved.
  
 This is part of the Gaussian(R) 09 program.  It is based on
 the Gaussian(R) 03 system (copyright 2003, Gaussian, Inc.),
 the Gaussian(R) 98 system (copyright 1998, Gaussian, Inc.),
 the Gaussian(R) 94 system (copyright 1995, Gaussian, Inc.),
 the Gaussian 92(TM) system (copyright 1992, Gaussian, Inc.),
 the Gaussian 90(TM) system (copyright 1990, Gaussian, Inc.),
 the Gaussian 88(TM) system (copyright 1988, Gaussian, Inc.),
 the Gaussian 86(TM) system (copyright 1986, Carnegie Mellon
 University), and the Gaussian 82(TM) system (copyright 1983,
 Carnegie Mellon University). Gaussian is a federally registered
 trademark of Gaussian, Inc.
  
 This software contains proprietary and confidential information,
 including trade secrets, belonging to Gaussian, Inc.
  
 This software is provided under written license and may be
 used, copied, transmitted, or stored only in accord with that
 written license.
  
 The following legend is applicable only to US Government
 contracts under FAR:
  
                    RESTRICTED RIGHTS LEGEND
  
 Use, reproduction and disclosure by the US Government is
 subject to restrictions as set forth in subparagraphs (a)
 and (c) of the Commercial Computer Software - Restricted
 Rights clause in FAR 52.227-19.
  
 Gaussian, Inc.
 340 Quinnipiac St., Bldg. 40, Wallingford CT 06492
  
  
 ---------------------------------------------------------------
 Warning -- This program may not be used in any manner that
 competes with the business of Gaussian, Inc. or will provide
 assistance to any competitor of Gaussian, Inc.  The licensee
 of this program is prohibited from giving any competitor of
 Gaussian, Inc. access to this program.  By using this program,
 the user acknowledges that Gaussian, Inc. is engaged in the
 business of creating and licensing software in the field of
 computational chemistry and represents and warrants to the
 licensee that it is not a competitor of Gaussian, Inc. and that
 it will not use this program in any manner prohibited above.
 ---------------------------------------------------------------
  

 Cite this work as:
 Gaussian 09, Revision E.01,
 M. J. Frisch, G. W. Trucks, H. B. Schlegel, G. E. Scuseria, 
 M. A. Robb, J. R. Cheeseman, G. Scalmani, V. Barone, B. Mennucci, 
 G. A. Petersson, H. Nakatsuji, M. Caricato, X. Li, H. P. Hratchian, 
 A. F. Izmaylov, J. Bloino, G. Zheng, J. L. Sonnenberg, M. Hada, 
 M. Ehara, K. Toyota, R. Fukuda, J. Hasegawa, M. Ishida, T. Nakajima, 
 Y. Honda, O. Kitao, H. Nakai, T. Vreven, J. A. Montgomery, Jr., 
 J. E. Peralta, F. Ogliaro, M. Bearpark, J. J. Heyd, E. Brothers, 
 K. N. Kudin, V. N. Staroverov, T. Keith, R. Kobayashi, J. Normand, 
 K. Raghavachari, A. Rendell, J. C. Burant, S. S. Iyengar, J. Tomasi, 
 M. Cossi, N. Rega, J. M. Millam, M. Klene, J. E. Knox, J. B. Cross, 
 V. Bakken, C. Adamo, J. Jaramillo, R. Gomperts, R. E. Stratmann, 
 O. Yazyev, A. J. Austin, R. Cammi, C. Pomelli, J. W. Ochterski, 
 R. L. Martin, K. Morokuma, V. G. Zakrzewski, G. A. Voth, 
 P. Salvador, J. J. Dannenberg, S. Dapprich, A. D. Daniels, 
 O. Farkas, J. B. Foresman, J. V. Ortiz, J. Cioslowski, 
 and D. J. Fox, Gaussian, Inc., Wallingford CT, 2013.
 
 ******************************************
 Gaussian 09:  ES64L-G09RevE.01 30-Nov-2015
                19-Feb-2019 
 ******************************************
 %chk=2Nitro4Fluro_OS_EtO.M062X_6-31pGd_opt_Pentadecane.chk
 %mem=196608000
 %nproc=8
 Will use up to    8 processors via shared memory.
 ----------------------------------------------------------------------
 # M062X/Gen 6D SCF=Tight INT(grid=ultrafine) OPT IOP(2/17=4) SCRF=(SMD
 ,Solvent=n-Pentadecane) maxdisk=2684354560
 ----------------------------------------------------------------------
 1/14=-1,18=20,19=15,26=4,38=1/1,3;
 2/9=110,12=2,17=4,18=5,40=1/2;
 3/5=7,8=2,11=2,16=1,25=1,30=1,70=32201,71=1,72=151,74=-55,75=-5/1,2,3;
 4//1;
 5/5=2,32=2,38=5,53=151/2;
 6/7=2,8=2,9=2,10=2,28=1/1;
 7//1,2,3,16;
 1/14=-1,18=20,19=15,26=4/3(2);
 2/9=110,17=4/2;
 99//99;
 2/9=110,17=4/2;
 3/5=7,6=1,8=2,11=2,16=1,25=1,30=1,70=32205,71=1,72=151,74=-55,75=-5,82=7/1,2,3;
 4/5=5,16=3,69=1/1;
 5/5=2,32=2,38=5,53=151/2;
 7//1,2,3,16;
 1/14=-1,18=20,19=15,26=4/3(-5);
 2/9=110,17=4/2;
 6/7=2,8=2,9=2,10=2,19=2,28=1/1;
 99/9=1/99;
 -------------------------------------------------
 2Nitro4Fluro_OS_EtO.M062X_6-31pGd_opt_Pentadecane
 -------------------------------------------------
 Symbolic Z-matrix:
 Charge = -1 Multiplicity = 1
 C                    -1.07835   2.67149   1.17132 
 C                     0.10314   2.00791   0.46991 
 C                     1.42099   2.70491   0.82402 
 N                     2.5467    2.07106   0.15724 
 C                     3.81824   2.54183   0.30544 
 O                     4.01629   3.50934   1.02727 
 N                     4.86118   1.91303  -0.32607 
 C                     6.23257   2.36188  -0.30516 
 C                     6.57719   3.75612  -0.35841 
 C                     7.28224   1.42034  -0.15875 
 C                     8.61284   1.82025  -0.06245 
 C                     8.93914   3.16739  -0.099 
 C                     7.93829   4.12233  -0.24208 
 H                    -2.01785   2.14984   0.89182 
 H                    -1.15956   3.73703   0.86758 
 H                    -0.05759   2.05856  -0.62918 
 H                     0.15142   0.94066   0.77722 
 H                     1.57647   2.66103   1.92465 
 H                     1.36157   3.77019   0.50881 
 H                     2.3582    1.16452  -0.51067 
 H                     7.09302   0.36146  -0.07937 
 F                     9.59087   0.89225   0.08452 
 N                     5.61544   4.80191  -0.57544 
 H                     9.97378   3.47622  -0.01977 
 O                     5.94658   5.94632  -0.48868 
 O                     4.53939   4.55852  -1.02737 
 H                    -0.95397   2.61455   2.27371 
 H                     4.60295   0.98482  -0.94249 
 H                     8.23862   5.16164  -0.28157 
 O                     4.12867  -0.4504   -2.36595 
 O                     1.95792  -0.34559  -1.8748 
 C                     2.85132  -0.86108  -2.53159 
 C                     2.50871  -1.95381  -3.50734 
 C                     3.73677  -2.50996  -4.22485 
 H                     1.79642  -1.55627  -4.26161 
 H                     2.01626  -2.78257  -2.95425 
 H                     4.23964  -1.70968  -4.80832 
 H                     3.42625  -3.31682  -4.92171 
 H                     4.45349  -2.93467  -3.48927 
 
 Add virtual bond connecting atoms O30        and H28        Dist= 3.92D+00.
 Add virtual bond connecting atoms O31        and H20        Dist= 3.92D+00.

 GradGradGradGradGradGradGradGradGradGradGradGradGradGradGradGradGradGrad
 Berny optimization.
 Initialization pass.
                           ----------------------------
                           !    Initial Parameters    !
                           ! (Angstroms and Degrees)  !
 --------------------------                            --------------------------
 ! Name  Definition              Value          Derivative Info.                !
 --------------------------------------------------------------------------------
 ! R1    R(1,2)                  1.5259         estimate D2E/DX2                !
 ! R2    R(1,14)                 1.1104         estimate D2E/DX2                !
 ! R3    R(1,15)                 1.111          estimate D2E/DX2                !
 ! R4    R(1,27)                 1.1108         estimate D2E/DX2                !
 ! R5    R(2,3)                  1.5323         estimate D2E/DX2                !
 ! R6    R(2,16)                 1.1119         estimate D2E/DX2                !
 ! R7    R(2,17)                 1.1117         estimate D2E/DX2                !
 ! R8    R(3,4)                  1.4538         estimate D2E/DX2                !
 ! R9    R(3,18)                 1.1124         estimate D2E/DX2                !
 ! R10   R(3,19)                 1.1125         estimate D2E/DX2                !
 ! R11   R(4,5)                  1.364          estimate D2E/DX2                !
 ! R12   R(4,20)                 1.1417         estimate D2E/DX2                !
 ! R13   R(5,6)                  1.2232         estimate D2E/DX2                !
 ! R14   R(5,7)                  1.3718         estimate D2E/DX2                !
 ! R15   R(7,8)                  1.4431         estimate D2E/DX2                !
 ! R16   R(7,28)                 1.1438         estimate D2E/DX2                !
 ! R17   R(8,9)                  1.4372         estimate D2E/DX2                !
 ! R18   R(8,10)                 1.4177         estimate D2E/DX2                !
 ! R19   R(9,13)                 1.4143         estimate D2E/DX2                !
 ! R20   R(9,23)                 1.4373         estimate D2E/DX2                !
 ! R21   R(10,11)                1.3927         estimate D2E/DX2                !
 ! R22   R(10,21)                1.0786         estimate D2E/DX2                !
 ! R23   R(11,12)                1.3866         estimate D2E/DX2                !
 ! R24   R(11,22)                1.3562         estimate D2E/DX2                !
 ! R25   R(12,13)                1.3907         estimate D2E/DX2                !
 ! R26   R(12,24)                1.0827         estimate D2E/DX2                !
 ! R27   R(13,29)                1.0826         estimate D2E/DX2                !
 ! R28   R(20,31)                2.074          estimate D2E/DX2                !
 ! R29   R(23,25)                1.1945         estimate D2E/DX2                !
 ! R30   R(23,26)                1.1922         estimate D2E/DX2                !
 ! R31   R(28,30)                2.0763         estimate D2E/DX2                !
 ! R32   R(30,32)                1.3519         estimate D2E/DX2                !
 ! R33   R(31,32)                1.2228         estimate D2E/DX2                !
 ! R34   R(32,33)                1.5045         estimate D2E/DX2                !
 ! R35   R(33,34)                1.5272         estimate D2E/DX2                !
 ! R36   R(33,35)                1.111          estimate D2E/DX2                !
 ! R37   R(33,36)                1.1114         estimate D2E/DX2                !
 ! R38   R(34,37)                1.1107         estimate D2E/DX2                !
 ! R39   R(34,38)                1.1104         estimate D2E/DX2                !
 ! R40   R(34,39)                1.1114         estimate D2E/DX2                !
 ! A1    A(2,1,14)             109.581          estimate D2E/DX2                !
 ! A2    A(2,1,15)             110.3671         estimate D2E/DX2                !
 ! A3    A(2,1,27)             110.3158         estimate D2E/DX2                !
 ! A4    A(14,1,15)            108.6583         estimate D2E/DX2                !
 ! A5    A(14,1,27)            108.6909         estimate D2E/DX2                !
 ! A6    A(15,1,27)            109.1881         estimate D2E/DX2                !
 ! A7    A(1,2,3)              111.2167         estimate D2E/DX2                !
 ! A8    A(1,2,16)             108.8224         estimate D2E/DX2                !
 ! A9    A(1,2,17)             108.9092         estimate D2E/DX2                !
 ! A10   A(3,2,16)             109.3919         estimate D2E/DX2                !
 ! A11   A(3,2,17)             109.6007         estimate D2E/DX2                !
 ! A12   A(16,2,17)            108.8601         estimate D2E/DX2                !
 ! A13   A(2,3,4)              111.2007         estimate D2E/DX2                !
 ! A14   A(2,3,18)             109.3241         estimate D2E/DX2                !
 ! A15   A(2,3,19)             108.9138         estimate D2E/DX2                !
 ! A16   A(4,3,18)             109.1691         estimate D2E/DX2                !
 ! A17   A(4,3,19)             109.2012         estimate D2E/DX2                !
 ! A18   A(18,3,19)            108.9995         estimate D2E/DX2                !
 ! A19   A(3,4,5)              121.4349         estimate D2E/DX2                !
 ! A20   A(3,4,20)             119.1214         estimate D2E/DX2                !
 ! A21   A(5,4,20)             119.442          estimate D2E/DX2                !
 ! A22   A(4,5,6)              119.2118         estimate D2E/DX2                !
 ! A23   A(4,5,7)              120.0341         estimate D2E/DX2                !
 ! A24   A(6,5,7)              120.7366         estimate D2E/DX2                !
 ! A25   A(5,7,8)              124.9757         estimate D2E/DX2                !
 ! A26   A(5,7,28)             116.6429         estimate D2E/DX2                !
 ! A27   A(8,7,28)             118.3439         estimate D2E/DX2                !
 ! A28   A(7,8,9)              121.9422         estimate D2E/DX2                !
 ! A29   A(7,8,10)             119.9041         estimate D2E/DX2                !
 ! A30   A(9,8,10)             118.0725         estimate D2E/DX2                !
 ! A31   A(8,9,13)             118.6148         estimate D2E/DX2                !
 ! A32   A(8,9,23)             123.4371         estimate D2E/DX2                !
 ! A33   A(13,9,23)            117.9043         estimate D2E/DX2                !
 ! A34   A(8,10,11)            121.5897         estimate D2E/DX2                !
 ! A35   A(8,10,21)            121.9871         estimate D2E/DX2                !
 ! A36   A(11,10,21)           116.386          estimate D2E/DX2                !
 ! A37   A(10,11,12)           120.1312         estimate D2E/DX2                !
 ! A38   A(10,11,22)           119.9993         estimate D2E/DX2                !
 ! A39   A(12,11,22)           119.8642         estimate D2E/DX2                !
 ! A40   A(11,12,13)           120.0317         estimate D2E/DX2                !
 ! A41   A(11,12,24)           120.0068         estimate D2E/DX2                !
 ! A42   A(13,12,24)           119.961          estimate D2E/DX2                !
 ! A43   A(9,13,12)            121.5513         estimate D2E/DX2                !
 ! A44   A(9,13,29)            120.836          estimate D2E/DX2                !
 ! A45   A(12,13,29)           117.6018         estimate D2E/DX2                !
 ! A46   A(9,23,25)            120.0421         estimate D2E/DX2                !
 ! A47   A(9,23,26)            120.8405         estimate D2E/DX2                !
 ! A48   A(25,23,26)           118.2506         estimate D2E/DX2                !
 ! A49   A(28,30,32)           120.6505         estimate D2E/DX2                !
 ! A50   A(20,31,32)           121.2794         estimate D2E/DX2                !
 ! A51   A(30,32,31)           119.7647         estimate D2E/DX2                !
 ! A52   A(30,32,33)           121.0144         estimate D2E/DX2                !
 ! A53   A(31,32,33)           119.2193         estimate D2E/DX2                !
 ! A54   A(32,33,34)           112.7112         estimate D2E/DX2                !
 ! A55   A(32,33,35)           109.0517         estimate D2E/DX2                !
 ! A56   A(32,33,36)           108.6473         estimate D2E/DX2                !
 ! A57   A(34,33,35)           109.0801         estimate D2E/DX2                !
 ! A58   A(34,33,36)           108.5755         estimate D2E/DX2                !
 ! A59   A(35,33,36)           108.6994         estimate D2E/DX2                !
 ! A60   A(33,34,37)           110.3942         estimate D2E/DX2                !
 ! A61   A(33,34,38)           109.5475         estimate D2E/DX2                !
 ! A62   A(33,34,39)           110.2911         estimate D2E/DX2                !
 ! A63   A(37,34,38)           108.6912         estimate D2E/DX2                !
 ! A64   A(37,34,39)           109.3322         estimate D2E/DX2                !
 ! A65   A(38,34,39)           108.5433         estimate D2E/DX2                !
 ! A66   L(4,20,31,2,-1)       178.8995         estimate D2E/DX2                !
 ! A67   L(7,28,30,1,-1)       180.8553         estimate D2E/DX2                !
 ! A68   L(4,20,31,2,-2)       173.9237         estimate D2E/DX2                !
 ! A69   L(7,28,30,1,-2)       168.9198         estimate D2E/DX2                !
 ! D1    D(14,1,2,3)           179.681          estimate D2E/DX2                !
 ! D2    D(14,1,2,16)           59.109          estimate D2E/DX2                !
 ! D3    D(14,1,2,17)          -59.4308         estimate D2E/DX2                !
 ! D4    D(15,1,2,3)            60.0599         estimate D2E/DX2                !
 ! D5    D(15,1,2,16)          -60.512          estimate D2E/DX2                !
 ! D6    D(15,1,2,17)         -179.0518         estimate D2E/DX2                !
 ! D7    D(27,1,2,3)           -60.6897         estimate D2E/DX2                !
 ! D8    D(27,1,2,16)          178.7384         estimate D2E/DX2                !
 ! D9    D(27,1,2,17)           60.1986         estimate D2E/DX2                !
 ! D10   D(1,2,3,4)            179.9085         estimate D2E/DX2                !
 ! D11   D(1,2,3,18)            59.2952         estimate D2E/DX2                !
 ! D12   D(1,2,3,19)           -59.7069         estimate D2E/DX2                !
 ! D13   D(16,2,3,4)           -59.8558         estimate D2E/DX2                !
 ! D14   D(16,2,3,18)          179.5309         estimate D2E/DX2                !
 ! D15   D(16,2,3,19)           60.5288         estimate D2E/DX2                !
 ! D16   D(17,2,3,4)            59.4272         estimate D2E/DX2                !
 ! D17   D(17,2,3,18)          -61.186          estimate D2E/DX2                !
 ! D18   D(17,2,3,19)          179.8119         estimate D2E/DX2                !
 ! D19   D(2,3,4,5)            178.6791         estimate D2E/DX2                !
 ! D20   D(2,3,4,20)            -0.849          estimate D2E/DX2                !
 ! D21   D(18,3,4,5)           -60.6163         estimate D2E/DX2                !
 ! D22   D(18,3,4,20)          119.8556         estimate D2E/DX2                !
 ! D23   D(19,3,4,5)            58.4644         estimate D2E/DX2                !
 ! D24   D(19,3,4,20)         -121.0637         estimate D2E/DX2                !
 ! D25   D(3,4,5,6)              0.83           estimate D2E/DX2                !
 ! D26   D(3,4,5,7)            179.3217         estimate D2E/DX2                !
 ! D27   D(20,4,5,6)          -179.6434         estimate D2E/DX2                !
 ! D28   D(20,4,5,7)            -1.1517         estimate D2E/DX2                !
 ! D29   D(3,4,31,32)          175.1548         estimate D2E/DX2                !
 ! D30   D(5,4,31,32)           -0.2107         estimate D2E/DX2                !
 ! D31   D(4,5,7,8)            176.3213         estimate D2E/DX2                !
 ! D32   D(4,5,7,28)            -1.4047         estimate D2E/DX2                !
 ! D33   D(6,5,7,8)             -5.2103         estimate D2E/DX2                !
 ! D34   D(6,5,7,28)           177.0637         estimate D2E/DX2                !
 ! D35   D(5,7,8,9)            -37.911          estimate D2E/DX2                !
 ! D36   D(5,7,8,10)           138.7476         estimate D2E/DX2                !
 ! D37   D(28,7,8,9)           139.7795         estimate D2E/DX2                !
 ! D38   D(28,7,8,10)          -43.5619         estimate D2E/DX2                !
 ! D39   D(5,7,30,32)           -3.9406         estimate D2E/DX2                !
 ! D40   D(8,7,30,32)         -174.6267         estimate D2E/DX2                !
 ! D41   D(7,8,9,13)           175.7588         estimate D2E/DX2                !
 ! D42   D(7,8,9,23)            -6.7051         estimate D2E/DX2                !
 ! D43   D(10,8,9,13)           -0.9586         estimate D2E/DX2                !
 ! D44   D(10,8,9,23)          176.5776         estimate D2E/DX2                !
 ! D45   D(7,8,10,11)         -176.5231         estimate D2E/DX2                !
 ! D46   D(7,8,10,21)            1.1764         estimate D2E/DX2                !
 ! D47   D(9,8,10,11)            0.2635         estimate D2E/DX2                !
 ! D48   D(9,8,10,21)          177.9631         estimate D2E/DX2                !
 ! D49   D(8,9,13,12)            0.9721         estimate D2E/DX2                !
 ! D50   D(8,9,13,29)          179.7398         estimate D2E/DX2                !
 ! D51   D(23,9,13,12)        -176.7014         estimate D2E/DX2                !
 ! D52   D(23,9,13,29)           2.0664         estimate D2E/DX2                !
 ! D53   D(8,9,23,25)          173.2323         estimate D2E/DX2                !
 ! D54   D(8,9,23,26)          -17.6115         estimate D2E/DX2                !
 ! D55   D(13,9,23,25)          -9.2152         estimate D2E/DX2                !
 ! D56   D(13,9,23,26)         159.941          estimate D2E/DX2                !
 ! D57   D(8,10,11,12)           0.4671         estimate D2E/DX2                !
 ! D58   D(8,10,11,22)         179.6259         estimate D2E/DX2                !
 ! D59   D(21,10,11,12)       -177.3549         estimate D2E/DX2                !
 ! D60   D(21,10,11,22)          1.8039         estimate D2E/DX2                !
 ! D61   D(10,11,12,13)         -0.481          estimate D2E/DX2                !
 ! D62   D(10,11,12,24)        179.7417         estimate D2E/DX2                !
 ! D63   D(22,11,12,13)       -179.641          estimate D2E/DX2                !
 ! D64   D(22,11,12,24)          0.5818         estimate D2E/DX2                !
 ! D65   D(11,12,13,9)          -0.249          estimate D2E/DX2                !
 ! D66   D(11,12,13,29)       -179.055          estimate D2E/DX2                !
 ! D67   D(24,12,13,9)         179.5283         estimate D2E/DX2                !
 ! D68   D(24,12,13,29)          0.7223         estimate D2E/DX2                !
 ! D69   D(28,30,32,31)          2.9188         estimate D2E/DX2                !
 ! D70   D(28,30,32,33)       -176.623          estimate D2E/DX2                !
 ! D71   D(20,31,32,30)          0.4023         estimate D2E/DX2                !
 ! D72   D(20,31,32,33)        179.9524         estimate D2E/DX2                !
 ! D73   D(30,32,33,34)          0.7209         estimate D2E/DX2                !
 ! D74   D(30,32,33,35)       -120.5738         estimate D2E/DX2                !
 ! D75   D(30,32,33,36)        121.0987         estimate D2E/DX2                !
 ! D76   D(31,32,33,34)       -178.8234         estimate D2E/DX2                !
 ! D77   D(31,32,33,35)         59.8819         estimate D2E/DX2                !
 ! D78   D(31,32,33,36)        -58.4456         estimate D2E/DX2                !
 ! D79   D(32,33,34,37)        -60.9191         estimate D2E/DX2                !
 ! D80   D(32,33,34,38)        179.4236         estimate D2E/DX2                !
 ! D81   D(32,33,34,39)         60.0123         estimate D2E/DX2                !
 ! D82   D(35,33,34,37)         60.3594         estimate D2E/DX2                !
 ! D83   D(35,33,34,38)        -59.2979         estimate D2E/DX2                !
 ! D84   D(35,33,34,39)       -178.7092         estimate D2E/DX2                !
 ! D85   D(36,33,34,37)        178.6618         estimate D2E/DX2                !
 ! D86   D(36,33,34,38)         59.0045         estimate D2E/DX2                !
 ! D87   D(36,33,34,39)        -60.4068         estimate D2E/DX2                !
 --------------------------------------------------------------------------------
 Trust Radius=3.00D-01 FncErr=1.00D-07 GrdErr=1.00D-06
 Number of steps in this run=    206 maximum allowed number of steps=    234.
 GradGradGradGradGradGradGradGradGradGradGradGradGradGradGradGradGradGrad

                          Input orientation:                          
 ---------------------------------------------------------------------
 Center     Atomic      Atomic             Coordinates (Angstroms)
 Number     Number       Type             X           Y           Z
 ---------------------------------------------------------------------
      1          6           0       -1.078350    2.671490    1.171320
      2          6           0        0.103140    2.007910    0.469910
      3          6           0        1.420990    2.704910    0.824020
      4          7           0        2.546700    2.071060    0.157240
      5          6           0        3.818240    2.541830    0.305440
      6          8           0        4.016290    3.509340    1.027270
      7          7           0        4.861180    1.913030   -0.326070
      8          6           0        6.232570    2.361880   -0.305160
      9          6           0        6.577190    3.756120   -0.358410
     10          6           0        7.282240    1.420340   -0.158750
     11          6           0        8.612840    1.820250   -0.062450
     12          6           0        8.939140    3.167390   -0.099000
     13          6           0        7.938290    4.122330   -0.242080
     14          1           0       -2.017850    2.149840    0.891820
     15          1           0       -1.159560    3.737030    0.867580
     16          1           0       -0.057590    2.058560   -0.629180
     17          1           0        0.151420    0.940660    0.777220
     18          1           0        1.576470    2.661030    1.924650
     19          1           0        1.361570    3.770190    0.508810
     20          1           0        2.358200    1.164520   -0.510670
     21          1           0        7.093020    0.361460   -0.079370
     22          9           0        9.590870    0.892250    0.084520
     23          7           0        5.615440    4.801910   -0.575440
     24          1           0        9.973780    3.476220   -0.019770
     25          8           0        5.946580    5.946320   -0.488680
     26          8           0        4.539390    4.558520   -1.027370
     27          1           0       -0.953970    2.614550    2.273710
     28          1           0        4.602950    0.984820   -0.942490
     29          1           0        8.238620    5.161640   -0.281570
     30          8           0        4.128670   -0.450400   -2.365950
     31          8           0        1.957920   -0.345590   -1.874800
     32          6           0        2.851320   -0.861080   -2.531590
     33          6           0        2.508710   -1.953810   -3.507340
     34          6           0        3.736770   -2.509960   -4.224850
     35          1           0        1.796420   -1.556270   -4.261610
     36          1           0        2.016260   -2.782570   -2.954250
     37          1           0        4.239640   -1.709680   -4.808320
     38          1           0        3.426250   -3.316820   -4.921710
     39          1           0        4.453490   -2.934670   -3.489270
 ---------------------------------------------------------------------
                    Distance matrix (angstroms):
                    1          2          3          4          5
     1  C    0.000000
     2  C    1.525855   0.000000
     3  C    2.523576   1.532296   0.000000
     4  N    3.811806   2.464292   1.453817   0.000000
     5  C    4.974249   3.756872   2.458115   1.363965   0.000000
     6  O    5.165085   4.228201   2.724702   2.232778   1.223249
     7  N    6.172152   4.825094   3.712774   2.369679   1.371830
     8  C    7.464945   6.188371   4.954192   3.726128   2.496839
     9  C    7.881865   6.756898   5.393476   4.398883   3.086584
    10  C    8.557682   7.230486   6.080313   4.790472   3.670492
    11  C    9.806425   8.528401   7.300079   6.075296   4.862531
    12  C   10.109883   8.929891   7.588704   6.490831   5.174796
    13  C    9.241344   8.146611   6.754321   5.782422   4.446636
    14  H    1.110360   2.167199   3.484009   4.623952   5.878558
    15  H    1.110958   2.177707   2.779642   4.125094   5.150048
    16  H    2.158572   1.111935   2.171579   2.720467   4.016108
    17  H    2.159496   1.111662   2.174069   2.720211   4.028882
    18  H    2.759653   2.171068   1.112423   2.100750   2.767956
    19  H    2.756677   2.165823   1.112524   2.101232   2.754170
    20  H    4.112168   2.599642   2.243337   1.141688   2.166734
    21  H    8.583225   7.202147   6.203209   4.862894   3.953008
    22  F   10.871020   9.560870   8.401163   7.142493   6.007760
    23  N    7.238555   6.267746   4.893803   4.172712   3.018914
    24  H   11.145217   9.991259   8.628854   7.560908   6.234542
    25  O    7.926522   7.111664   5.719343   5.195579   4.092800
    26  O    6.320927   5.331770   4.072829   3.400231   2.522594
    27  H    1.110845   2.176968   2.783918   4.126684   5.162690
    28  H    6.292076   4.825959   4.025436   2.572448   2.144150
    29  H    9.752829   8.757669   7.330616   6.491702   5.171822
    30  O    7.026488   5.503661   5.240555   3.902163   4.023199
    31  O    5.253623   3.804844   4.108220   3.211860   4.068345
    32  C    6.452356   4.979217   5.101201   3.989993   4.534696
    33  C    7.493348   6.107414   6.453486   5.443360   6.038455
    34  C    8.896710   7.460240   7.618976   6.450172   6.786070
    35  H    7.460227   6.160995   6.645467   5.765993   6.460660
    36  H    7.506245   6.191413   6.688954   5.789686   6.497842
    37  H    9.123144   7.667517   7.691336   6.466593   6.663592
    38  H    9.657965   8.274381   8.561292   7.456446   7.861332
    39  H    9.151578   7.683082   7.720453   6.479986   6.692938
                    6          7          8          9         10
     6  O    0.000000
     7  N    2.256895   0.000000
     8  C    2.829122   1.443126   0.000000
     9  C    2.922194   2.518475   1.437186   0.000000
    10  C    4.054256   2.476342   1.417653   2.448025   0.000000
    11  C    5.016850   3.762055   2.453152   2.824722   1.392730
    12  C    5.061607   4.272556   2.831408   2.448000   2.408541
    13  C    4.167624   3.789019   2.452069   1.414297   2.781743
    14  H    6.186876   6.990021   8.339494   8.832776   9.387627
    15  H    5.183316   6.403209   7.609858   7.833308   8.813875
    16  H    4.630884   4.930249   6.305799   6.853855   7.382529
    17  H    4.647350   4.934024   6.338123   7.106827   7.207963
    18  H    2.734528   4.051489   5.171152   5.605246   6.199651
    19  H    2.717422   4.048869   5.135419   5.287245   6.404824
    20  H    3.257714   2.619018   4.060375   4.953731   4.943224
    21  H    4.538730   2.729348   2.189300   3.444947   1.078579
    22  F    6.230079   4.855980   3.686440   4.180934   2.380721
    23  N    2.607048   2.996118   2.531333   1.437269   3.793003
    24  H    6.048891   5.355003   3.914058   3.424886   3.389741
    25  O    3.458756   4.179948   3.600511   2.282896   4.730469
    26  O    2.365578   2.755719   2.865951   2.289974   4.257452
    27  H    5.201706   6.408350   7.639422   8.059132   8.670534
    28  H    3.255353   1.143779   2.226689   3.452373   2.825336
    29  H    4.719240   4.686422   3.444336   2.177554   3.863557
    30  O    5.215948   3.206787   4.072121   5.265005   4.279767
    31  O    5.245892   3.991096   5.297811   6.360906   5.866150
    32  C    5.755277   4.074254   5.174680   6.318493   5.519810
    33  C    7.258202   5.532363   6.538063   7.685804   6.736804
    34  C    7.993427   6.002302   6.732593   7.891838   6.674637
    35  H    7.652482   6.075958   7.119327   8.143232   7.469129
    36  H    7.709783   6.086835   7.159631   8.384207   7.294506
    37  H    7.832124   5.796629   6.389665   7.425686   6.377534
    38  H    9.073862   7.108464   7.838086   8.987692   7.745652
    39  H    7.881341   5.802779   6.430950   7.686290   6.169303
                   11         12         13         14         15
    11  C    0.000000
    12  C    1.386576   0.000000
    13  C    2.405589   1.390713   0.000000
    14  H   10.678522  11.048654  10.212794   0.000000
    15  H   10.001940  10.160832   9.173368   1.804556   0.000000
    16  H    8.692199   9.080294   8.266988   2.482819   2.504374
    17  H    8.548354   9.107695   8.473331   2.486158   3.089744
    18  H    7.359754   7.652481   6.877708   3.774545   3.124265
    19  H    7.530572   7.625770   6.628807   3.767321   2.546745
    20  H    6.304871   6.891279   6.321249   4.699750   4.570779
    21  H    2.106705   3.358837   3.858121   9.335388   8.966396
    22  F    1.356218   2.373751   3.642953  11.704514  11.147991
    23  N    4.258857   3.734385   2.443070   8.213005   7.008345
    24  H    2.143879   1.082651   2.147114  12.099152  11.171691
    25  O    4.931031   4.102404   2.711948   8.930352   7.564234
    26  O    5.002218   4.706901   3.515603   7.244476   6.061659
    27  H    9.879899  10.188671   9.363487   1.804831   1.810920
    28  H    4.189467   4.927234   4.632390   6.968282   6.637585
    29  H    3.369413   2.121578   1.082554  10.753742   9.574750
    30  O    5.528991   6.431803   6.319327   7.426575   7.480352
    31  O    7.229345   8.014482   7.641525   5.448679   5.822982
    32  C    6.817719   7.694649   7.480207   6.670397   6.984564
    33  C    7.960603   8.899096   8.778482   7.528765   8.061128
    34  C    7.736430   8.736109   8.803550   9.000539   9.430365
    35  H    8.688925   9.521488   9.280393   7.405521   7.941375
    36  H    8.547709   9.564557   9.492310   7.442779   8.197402
    37  H    7.355853   8.249170   8.279064   9.302885   9.541166
    38  H    8.769413   9.782406   9.879190   9.660214  10.212851
    39  H    7.186971   8.297597   8.514066   9.323327   9.746797
                   16         17         18         19         20
    16  H    0.000000
    17  H    1.808686   0.000000
    18  H    3.091144   2.511381   0.000000
    19  H    2.497742   3.089134   1.811359   0.000000
    20  H    2.578642   2.564888   2.963347   2.970207   0.000000
    21  H    7.369780   7.018193   6.303685   6.694394   4.821768
    22  F    9.744867   9.464956   8.411021   8.728341   7.262224
    23  N    6.301756   6.826013   5.210288   4.509485   4.883074
    24  H   10.149361  10.175609   8.657951   8.633422   7.973832
    25  O    7.154333   7.761637   5.976216   5.172315   5.978509
    26  O    5.247912   5.966551   4.592797   3.616608   4.067408
    27  H    3.088591   2.502654   2.554825   3.132427   4.563533
    28  H    4.792882   4.772365   4.493301   4.513436   2.292959
    29  H    8.864369   9.183709   7.450148   7.060783   7.113986
    30  O    5.180350   5.256718   5.882514   5.808138   3.030610
    31  O    3.375468   3.457035   4.860153   4.793420   2.074007
    32  C    4.539297   4.635078   5.821390   5.736902   2.903505
    33  C    5.564963   5.682625   7.188347   7.085871   4.327432
    34  C    6.942434   7.055651   8.319999   8.215193   5.403461
    35  H    5.449669   5.859223   7.490248   7.163601   4.667745
    36  H    5.757026   5.591416   7.323241   7.440435   4.654839
    37  H    7.080327   7.411889   8.457450   8.159910   5.501876
    38  H    7.710880   7.831248   9.275183   9.164014   6.378120
    39  H    7.311792   7.192282   8.300580   8.396414   5.483216
                   21         22         23         24         25
    21  H    0.000000
    22  F    2.558877   0.000000
    23  N    4.706052   5.614716   0.000000
    24  H    4.243119   2.614268   4.589265   0.000000
    25  O    5.715988   6.257238   1.194510   4.747590   0.000000
    26  O    5.003503   6.339975   1.192209   5.631982   2.048502
    27  H    8.681443  10.906536   7.487279  11.199029   8.145494
    28  H    2.708136   5.093394   3.966111   5.992020   5.160210
    29  H    4.939131   4.493361   2.663989   2.433097   2.431474
    30  O    3.830788   6.135401   5.744839   7.422144   6.909918
    31  O    5.485685   7.977036   6.446902   9.072011   7.577524
    32  C    5.049753   7.439068   6.598207   8.709239   7.752084
    33  C    6.174735   8.435550   7.992970   9.867910   9.129256
    34  C    6.057596   8.025970   8.385168   9.613394   9.505309
    35  H    7.015896   9.254056   8.282464  10.497065   9.367373
    36  H    6.627469   8.950594   8.725662  10.540671   9.885341
    37  H    5.898675   7.703609   7.887389   9.094181   8.954734
    38  H    7.100930   8.987833   9.465537  10.632241  10.574005
    39  H    5.427615   7.335528   8.348365   9.143880   9.492357
                   26         27         28         29         30
    26  O    0.000000
    27  H    6.697250   0.000000
    28  H    3.575273   6.624147   0.000000
    29  H    3.821554   9.875264   5.576803   0.000000
    30  O    5.200939   7.533498   2.076304   7.261634   0.000000
    31  O    5.606462   5.869554   3.104090   8.503832   2.228086
    32  C    5.872335   7.046357   3.000132   8.388012   1.351931
    33  C    7.258399   8.141290   4.427171   9.688503   2.487425
    34  C    7.799454   9.512882   4.872129   9.729828   2.801943
    35  H    7.441428   8.226226   5.034909  10.122894   3.202478
    36  H    7.998166   8.079773   4.993132  10.438939   3.201154
    37  H    7.326375   9.789162   4.726200   9.148680   2.750140
    38  H    8.855842  10.302502   5.976866  10.796948   3.904058
    39  H    7.887726   9.656418   4.676626   9.495619   2.745715
                   31         32         33         34         35
    31  O    0.000000
    32  C    1.222811   0.000000
    33  C    2.356889   1.504503   0.000000
    34  C    3.656712   2.523877   1.527172   0.000000
    35  H    2.681173   2.142212   1.110999   2.162368   0.000000
    36  H    2.665987   2.137309   1.111422   2.156130   1.805916
    37  H    3.958854   2.798402   2.179052   1.110749   2.508336
    38  H    4.501984   3.474748   2.167976   1.110432   2.488295
    39  H    3.941791   2.789960   2.178206   1.111370   3.091362
                   36         37         38         39
    36  H    0.000000
    37  H    3.087408   0.000000
    38  H    2.478789   1.804816   0.000000
    39  H    2.499894   1.812795   1.803648   0.000000
 Stoichiometry    C13H17FN3O5(1-)
 Framework group  C1[X(C13H17FN3O5)]
 Deg. of freedom   111
 Full point group                 C1      NOp   1
 Largest Abelian subgroup         C1      NOp   1
 Largest concise Abelian subgroup C1      NOp   1
                         Standard orientation:                         
 ---------------------------------------------------------------------
 Center     Atomic      Atomic             Coordinates (Angstroms)
 Number     Number       Type             X           Y           Z
 ---------------------------------------------------------------------
      1          6           0       -4.414328   -3.876399   -0.747919
      2          6           0       -3.738443   -2.518688   -0.580488
      3          6           0       -2.212667   -2.648050   -0.637097
      4          7           0       -1.569109   -1.353972   -0.479683
      5          6           0       -0.210688   -1.231423   -0.471050
      6          8           0        0.479825   -2.230975   -0.613966
      7          7           0        0.366266    0.005675   -0.334549
      8          6           0        1.785070    0.250452   -0.236097
      9          6           0        2.659707   -0.628579    0.490414
     10          6           0        2.362842    1.345878   -0.925997
     11          6           0        3.736865    1.573051   -0.913727
     12          6           0        4.578328    0.713521   -0.223987
     13          6           0        4.050413   -0.372508    0.465890
     14          1           0       -5.516543   -3.752198   -0.696960
     15          1           0       -4.096896   -4.568699    0.060899
     16          1           0       -4.036319   -2.088197    0.400505
     17          1           0       -4.085566   -1.841120   -1.390549
     18          1           0       -1.916473   -3.086692   -1.615539
     19          1           0       -1.877607   -3.325088    0.179643
     20          1           0       -2.217399   -0.422810   -0.352762
     21          1           0        1.769837    2.025828   -1.517050
     22          9           0        4.256005    2.626906   -1.591378
     23          7           0        2.192534   -1.730140    1.286689
     24          1           0        5.646547    0.889645   -0.219258
     25          8           0        2.974480   -2.494654    1.767245
     26          8           0        1.054920   -1.791113    1.638087
     27          1           0       -4.151140   -4.319508   -1.731973
     28          1           0       -0.345348    0.897772   -0.257096
     29          1           0        4.741412   -1.009034    1.003736
     30          8           0       -1.587633    2.475073    0.271948
     31          8           0       -3.414675    1.214144    0.081307
     32          6           0       -2.929306    2.313101    0.309295
     33          6           0       -3.841398    3.469097    0.617984
     34          6           0       -3.082061    4.773631    0.850046
     35          1           0       -4.436769    3.229182    1.524788
     36          1           0       -4.536632    3.611464   -0.237375
     37          1           0       -2.394019    4.672206    1.716115
     38          1           0       -3.803429    5.590689    1.062423
     39          1           0       -2.496863    5.045173   -0.054914
 ---------------------------------------------------------------------
 Rotational constants (GHZ):      0.2655754      0.1693993      0.1154043
 General basis read from cards:  (6D, 7F)
 There are   452 symmetry adapted cartesian basis functions of A   symmetry.
 There are   452 symmetry adapted basis functions of A   symmetry.
   452 basis functions,   772 primitive gaussians,   452 cartesian basis functions
    83 alpha electrons       83 beta electrons
       nuclear repulsion energy      1807.3183443552 Hartrees.
 NAtoms=   39 NActive=   39 NUniq=   39 SFac= 1.00D+00 NAtFMM=   60 NAOKFM=F Big=F
 Integral buffers will be    131072 words long.
 Raffenetti 2 integral format.
 Two-electron integral symmetry is turned on.
 ------------------------------------------------------------------------------
 Polarizable Continuum Model (PCM)
 =================================
 Model                : PCM (using non-symmetric T matrix).
 Atomic radii         : SMD-Coulomb.
 Polarization charges : Total charges.
 Charge compensation  : None.
 Solution method      : On-the-fly selection.
 Cavity type          : VdW (van der Waals Surface) (Alpha=1.000).
 Cavity algorithm     : GePol (No added spheres)
                        Default sphere list used, NSphG=   39.
                        Lebedev-Laikov grids with approx.  5.0 points / Ang**2.
                        Smoothing algorithm: York/Karplus (Gamma=1.0000).
                        Polarization charges: spherical gaussians, with
                                              point-specific exponents (IZeta= 3).
                        Self-potential: point-specific (ISelfS= 7).
                        Self-field    : sphere-specific E.n sum rule (ISelfD= 2).
 1st derivatives      : Analytical E(r).r(x)/FMM algorithm (CHGder, D1EAlg=3).
                        Cavity 1st derivative terms included.
 Solvent              : n-Pentadecane, Eps=   2.033300 Eps(inf)=   2.049192
 ------------------------------------------------------------------------------
 ------------------------------------------------------------------------------
 Atomic radii for non-electrostatic terms: SMD-CDS.
 ------------------------------------------------------------------------------
 Nuclear repulsion after PCM non-electrostatic terms =     1807.3087324549 Hartrees.
 One-electron integrals computed using PRISM.
 NBasis=   452 RedAO= T EigKep=  1.24D-06  NBF=   452
 NBsUse=   452 1.00D-06 EigRej= -1.00D+00 NBFU=   452
 ExpMin= 4.38D-02 ExpMax= 7.00D+03 ExpMxC= 1.05D+03 IAcc=3 IRadAn=         5 AccDes= 0.00D+00
 Harris functional with IExCor= 1009 and IRadAn=       5 diagonalized for initial guess.
 HarFok:  IExCor= 1009 AccDes= 0.00D+00 IRadAn=         5 IDoV= 1 UseB2=F ITyADJ=14
 ICtDFT=  3500011 ScaDFX=  1.000000  1.000000  1.000000  1.000000
 FoFCou: FMM=F IPFlag=           0 FMFlag=      100000 FMFlg1=           0
         NFxFlg=           0 DoJE=T BraDBF=F KetDBF=T FulRan=T
         wScrn=  0.000000 ICntrl=     500 IOpCl=  0 I1Cent=   200000004 NGrid=           0
         NMat0=    1 NMatS0=      1 NMatT0=    0 NMatD0=    1 NMtDS0=    0 NMtDT0=    0
 Petite list used in FoFCou.
 Requested convergence on RMS density matrix=1.00D-08 within 128 cycles.
 Requested convergence on MAX density matrix=1.00D-06.
 Requested convergence on             energy=1.00D-06.
 No special actions if energy rises.
 Inv3:  Mode=1 IEnd=    30451788.
 Iteration    1 A*A^-1 deviation from unit magnitude is 6.99D-15 for    379.
 Iteration    1 A*A^-1 deviation from orthogonality  is 1.80D-15 for    976    247.
 Iteration    1 A^-1*A deviation from unit magnitude is 6.22D-15 for   3179.
 Iteration    1 A^-1*A deviation from orthogonality  is 4.94D-15 for   1681   1678.
 Error on total polarization charges =  0.02573
 SCF Done:  E(RM062X) =  -1145.42976225     A.U. after   17 cycles
            NFock= 17  Conv=0.51D-08     -V/T= 2.0089
 SMD-CDS (non-electrostatic) energy       (kcal/mol) =      -6.03
 (included in total energy above)

 **********************************************************************

            Population analysis using the SCF density.

 **********************************************************************

 Orbital symmetries:
       Occupied  (A) (A) (A) (A) (A) (A) (A) (A) (A) (A) (A) (A)
                 (A) (A) (A) (A) (A) (A) (A) (A) (A) (A) (A) (A)
                 (A) (A) (A) (A) (A) (A) (A) (A) (A) (A) (A) (A)
                 (A) (A) (A) (A) (A) (A) (A) (A) (A) (A) (A) (A)
                 (A) (A) (A) (A) (A) (A) (A) (A) (A) (A) (A) (A)
                 (A) (A) (A) (A) (A) (A) (A) (A) (A) (A) (A) (A)
                 (A) (A) (A) (A) (A) (A) (A) (A) (A) (A) (A)
       Virtual   (A) (A) (A) (A) (A) (A) (A) (A) (A) (A) (A) (A)
                 (A) (A) (A) (A) (A) (A) (A) (A) (A) (A) (A) (A)
                 (A) (A) (A) (A) (A) (A) (A) (A) (A) (A) (A) (A)
                 (A) (A) (A) (A) (A) (A) (A) (A) (A) (A) (A) (A)
                 (A) (A) (A) (A) (A) (A) (A) (A) (A) (A) (A) (A)
                 (A) (A) (A) (A) (A) (A) (A) (A) (A) (A) (A) (A)
                 (A) (A) (A) (A) (A) (A) (A) (A) (A) (A) (A) (A)
                 (A) (A) (A) (A) (A) (A) (A) (A) (A) (A) (A) (A)
                 (A) (A) (A) (A) (A) (A) (A) (A) (A) (A) (A) (A)
                 (A) (A) (A) (A) (A) (A) (A) (A) (A) (A) (A) (A)
                 (A) (A) (A) (A) (A) (A) (A) (A) (A) (A) (A) (A)
                 (A) (A) (A) (A) (A) (A) (A) (A) (A) (A) (A) (A)
                 (A) (A) (A) (A) (A) (A) (A) (A) (A) (A) (A) (A)
                 (A) (A) (A) (A) (A) (A) (A) (A) (A) (A) (A) (A)
                 (A) (A) (A) (A) (A) (A) (A) (A) (A) (A) (A) (A)
                 (A) (A) (A) (A) (A) (A) (A) (A) (A) (A) (A) (A)
                 (A) (A) (A) (A) (A) (A) (A) (A) (A) (A) (A) (A)
                 (A) (A) (A) (A) (A) (A) (A) (A) (A) (A) (A) (A)
                 (A) (A) (A) (A) (A) (A) (A) (A) (A) (A) (A) (A)
                 (A) (A) (A) (A) (A) (A) (A) (A) (A) (A) (A) (A)
                 (A) (A) (A) (A) (A) (A) (A) (A) (A) (A) (A) (A)
                 (A) (A) (A) (A) (A) (A) (A) (A) (A) (A) (A) (A)
                 (A) (A) (A) (A) (A) (A) (A) (A) (A) (A) (A) (A)
                 (A) (A) (A) (A) (A) (A) (A) (A) (A) (A) (A) (A)
                 (A) (A) (A) (A) (A) (A) (A) (A) (A) (A) (A) (A)
                 (A) (A) (A) (A) (A) (A) (A) (A) (A) (A) (A) (A)
                 (A) (A) (A) (A) (A) (A) (A) (A) (A) (A) (A) (A)
                 (A) (A) (A) (A) (A) (A) (A) (A) (A) (A) (A) (A)
                 (A) (A) (A) (A) (A) (A) (A) (A) (A) (A) (A) (A)
                 (A) (A) (A) (A) (A) (A) (A) (A) (A) (A) (A) (A)
                 (A) (A) (A) (A) (A) (A) (A) (A) (A)
 The electronic state is 1-A.
 Alpha  occ. eigenvalues --  -25.25778 -19.61671 -19.61518 -19.53319 -19.51687
 Alpha  occ. eigenvalues --  -19.49966 -14.95825 -14.74090 -14.71405 -10.62240
 Alpha  occ. eigenvalues --  -10.61103 -10.59864 -10.57709 -10.56099 -10.54744
 Alpha  occ. eigenvalues --  -10.53537 -10.53353 -10.52352 -10.49684 -10.49622
 Alpha  occ. eigenvalues --  -10.48320 -10.47765  -1.34709  -1.34088  -1.13311
 Alpha  occ. eigenvalues --   -1.10529  -1.07158  -0.98369  -0.94980  -0.94208
 Alpha  occ. eigenvalues --   -0.92820  -0.87404  -0.83044  -0.81490  -0.79846
 Alpha  occ. eigenvalues --   -0.75738  -0.72017  -0.68187  -0.65614  -0.65286
 Alpha  occ. eigenvalues --   -0.62758  -0.60887  -0.59724  -0.58827  -0.57143
 Alpha  occ. eigenvalues --   -0.56460  -0.54283  -0.54002  -0.53527  -0.51804
 Alpha  occ. eigenvalues --   -0.50613  -0.49674  -0.48471  -0.47010  -0.46426
 Alpha  occ. eigenvalues --   -0.46383  -0.46171  -0.44767  -0.44478  -0.43251
 Alpha  occ. eigenvalues --   -0.41681  -0.41254  -0.39919  -0.39561  -0.39344
 Alpha  occ. eigenvalues --   -0.37999  -0.37273  -0.36825  -0.34871  -0.34783
 Alpha  occ. eigenvalues --   -0.34323  -0.34271  -0.33194  -0.32855  -0.31122
 Alpha  occ. eigenvalues --   -0.30317  -0.28692  -0.27169  -0.24878  -0.24039
 Alpha  occ. eigenvalues --   -0.23204  -0.22585  -0.21740
 Alpha virt. eigenvalues --    0.00244   0.04221   0.05836   0.06801   0.07123
 Alpha virt. eigenvalues --    0.07625   0.08055   0.08514   0.08708   0.09103
 Alpha virt. eigenvalues --    0.09338   0.09784   0.10076   0.10245   0.10920
 Alpha virt. eigenvalues --    0.11351   0.11932   0.12124   0.12538   0.12829
 Alpha virt. eigenvalues --    0.13260   0.13612   0.14222   0.14509   0.14641
 Alpha virt. eigenvalues --    0.15249   0.15486   0.15575   0.16102   0.16817
 Alpha virt. eigenvalues --    0.16980   0.17576   0.17740   0.18053   0.18293
 Alpha virt. eigenvalues --    0.18881   0.18957   0.19716   0.19919   0.20376
 Alpha virt. eigenvalues --    0.20753   0.20968   0.21757   0.22101   0.22206
 Alpha virt. eigenvalues --    0.22726   0.23348   0.23825   0.24419   0.24713
 Alpha virt. eigenvalues --    0.25129   0.25642   0.26114   0.26413   0.26630
 Alpha virt. eigenvalues --    0.26795   0.27225   0.27493   0.28050   0.28590
 Alpha virt. eigenvalues --    0.28787   0.28951   0.29516   0.29669   0.29957
 Alpha virt. eigenvalues --    0.30219   0.30772   0.30945   0.31681   0.31790
 Alpha virt. eigenvalues --    0.32210   0.32773   0.33270   0.33470   0.34047
 Alpha virt. eigenvalues --    0.34263   0.34643   0.34801   0.35065   0.35564
 Alpha virt. eigenvalues --    0.35835   0.36629   0.36989   0.37477   0.37807
 Alpha virt. eigenvalues --    0.37897   0.38309   0.38575   0.38818   0.39027
 Alpha virt. eigenvalues --    0.39627   0.40340   0.40603   0.40976   0.41320
 Alpha virt. eigenvalues --    0.41636   0.41753   0.42125   0.42483   0.43141
 Alpha virt. eigenvalues --    0.43738   0.44413   0.44835   0.44986   0.45248
 Alpha virt. eigenvalues --    0.45899   0.46559   0.46914   0.47668   0.48459
 Alpha virt. eigenvalues --    0.48605   0.49264   0.49684   0.50333   0.51108
 Alpha virt. eigenvalues --    0.51656   0.52606   0.53105   0.54751   0.54949
 Alpha virt. eigenvalues --    0.56547   0.57195   0.57512   0.58682   0.58968
 Alpha virt. eigenvalues --    0.61641   0.61898   0.62804   0.64953   0.67249
 Alpha virt. eigenvalues --    0.70331   0.71777   0.75115   0.75246   0.76840
 Alpha virt. eigenvalues --    0.77206   0.77479   0.77859   0.78471   0.80031
 Alpha virt. eigenvalues --    0.80753   0.81749   0.82325   0.83924   0.84116
 Alpha virt. eigenvalues --    0.84588   0.85716   0.85927   0.86178   0.87183
 Alpha virt. eigenvalues --    0.87753   0.88431   0.90129   0.92821   0.92915
 Alpha virt. eigenvalues --    0.93460   0.94324   0.95241   0.96472   0.97720
 Alpha virt. eigenvalues --    0.98887   0.99334   1.01054   1.01533   1.03527
 Alpha virt. eigenvalues --    1.04232   1.04706   1.05494   1.05637   1.06667
 Alpha virt. eigenvalues --    1.07806   1.09023   1.09665   1.09738   1.12501
 Alpha virt. eigenvalues --    1.12991   1.13392   1.13534   1.15096   1.15546
 Alpha virt. eigenvalues --    1.17475   1.17596   1.18660   1.19166   1.20186
 Alpha virt. eigenvalues --    1.20564   1.21472   1.22420   1.23107   1.23747
 Alpha virt. eigenvalues --    1.24522   1.24691   1.26587   1.27803   1.29267
 Alpha virt. eigenvalues --    1.30539   1.31463   1.32235   1.32736   1.33027
 Alpha virt. eigenvalues --    1.34031   1.34650   1.36782   1.39073   1.40432
 Alpha virt. eigenvalues --    1.40612   1.41434   1.42015   1.42971   1.44350
 Alpha virt. eigenvalues --    1.45438   1.45889   1.46817   1.47977   1.48299
 Alpha virt. eigenvalues --    1.49756   1.51026   1.51243   1.52577   1.52708
 Alpha virt. eigenvalues --    1.52982   1.53765   1.54574   1.55439   1.56060
 Alpha virt. eigenvalues --    1.56611   1.58653   1.61105   1.61679   1.63015
 Alpha virt. eigenvalues --    1.63661   1.64737   1.66169   1.66965   1.68339
 Alpha virt. eigenvalues --    1.70796   1.73753   1.74484   1.75299   1.75677
 Alpha virt. eigenvalues --    1.77987   1.79414   1.81558   1.81878   1.82374
 Alpha virt. eigenvalues --    1.83954   1.85446   1.86661   1.88459   1.90726
 Alpha virt. eigenvalues --    1.91180   1.91847   1.92162   1.93437   1.93742
 Alpha virt. eigenvalues --    1.94708   1.95793   1.97266   1.97945   1.98227
 Alpha virt. eigenvalues --    1.99460   2.00580   2.01370   2.01736   2.02466
 Alpha virt. eigenvalues --    2.03429   2.03978   2.04535   2.04862   2.05678
 Alpha virt. eigenvalues --    2.07529   2.08749   2.09733   2.09945   2.10830
 Alpha virt. eigenvalues --    2.11136   2.12970   2.13347   2.14149   2.14180
 Alpha virt. eigenvalues --    2.15661   2.17371   2.18487   2.18906   2.19595
 Alpha virt. eigenvalues --    2.22284   2.22489   2.22934   2.24964   2.25468
 Alpha virt. eigenvalues --    2.26831   2.28512   2.31207   2.31583   2.33470
 Alpha virt. eigenvalues --    2.34925   2.35457   2.36090   2.38575   2.39145
 Alpha virt. eigenvalues --    2.40318   2.40693   2.41123   2.42904   2.43514
 Alpha virt. eigenvalues --    2.44539   2.45663   2.46766   2.48942   2.56046
 Alpha virt. eigenvalues --    2.58483   2.58933   2.61307   2.62928   2.63279
 Alpha virt. eigenvalues --    2.65075   2.66195   2.70327   2.70583   2.71813
 Alpha virt. eigenvalues --    2.73712   2.76407   2.77532   2.80358   2.80480
 Alpha virt. eigenvalues --    2.81409   2.83927   2.84672   2.85490   2.88325
 Alpha virt. eigenvalues --    2.92066   2.93560   2.97549   3.03383   3.10961
 Alpha virt. eigenvalues --    3.12212   3.12646   3.16396   3.21599   3.23053
 Alpha virt. eigenvalues --    3.25133   3.27198   3.28675   3.31351   3.36469
 Alpha virt. eigenvalues --    3.40526   3.50379   4.21458   4.28915   4.30581
 Alpha virt. eigenvalues --    4.31907   4.36788   4.38581   4.39134   4.41156
 Alpha virt. eigenvalues --    4.47243   4.51326   4.52761   4.54521   4.56979
 Alpha virt. eigenvalues --    4.58565   4.61612   4.64331   4.70699   4.77915
 Alpha virt. eigenvalues --    4.84049   4.91467   4.96757   6.12845
          Condensed to atoms (all electrons):
               1          2          3          4          5          6
     1  C    5.803195  -0.135690  -0.043186   0.000076  -0.030051  -0.000120
     2  C   -0.135690   6.318118  -0.406137  -0.071416   0.075346   0.019473
     3  C   -0.043186  -0.406137   6.949414   0.451567  -0.843723  -0.051039
     4  N    0.000076  -0.071416   0.451567   7.749136   0.231534  -0.139249
     5  C   -0.030051   0.075346  -0.843723   0.231534   6.589730   0.676410
     6  O   -0.000120   0.019473  -0.051039  -0.139249   0.676410   8.429001
     7  N   -0.000637  -0.000930  -0.165368  -0.334699   0.245765  -0.181508
     8  C   -0.000528   0.035952  -0.368636  -0.220217  -1.074759  -0.413539
     9  C   -0.004559  -0.031847  -0.225040  -0.137059  -1.285566   0.322959
    10  C    0.000895   0.011319   0.117138   0.075358   0.287636  -0.106640
    11  C    0.000044  -0.001010   0.014311   0.007424   0.114566  -0.018148
    12  C   -0.000049  -0.000118  -0.008364  -0.006288  -0.012156   0.045251
    13  C    0.000013  -0.004621   0.053365   0.036032   0.573152   0.122663
    14  H    0.445339  -0.124589   0.030173   0.000387  -0.000738   0.000006
    15  H    0.420308  -0.063702  -0.012103   0.000084  -0.000424  -0.000034
    16  H   -0.031498   0.426554  -0.085246   0.004857   0.001274  -0.000138
    17  H   -0.032173   0.421307  -0.071361   0.004977  -0.009257  -0.000166
    18  H   -0.012092  -0.060360   0.414485  -0.062522   0.020705   0.000016
    19  H   -0.005194  -0.041348   0.459593  -0.050556  -0.059755   0.002089
    20  H   -0.000941  -0.005899  -0.066848   0.182881   0.027095   0.003974
    21  H    0.000001   0.000005   0.000193  -0.000200   0.006210  -0.000176
    22  F    0.000000  -0.000000   0.000061   0.000007   0.002783   0.000009
    23  N    0.000881   0.001654   0.013025   0.036414  -0.093961  -0.028992
    24  H   -0.000000   0.000000  -0.000005  -0.000001  -0.000375   0.000003
    25  O    0.000015   0.000224  -0.002011  -0.002948   0.013249  -0.004721
    26  O   -0.000183   0.002633  -0.039668  -0.027233   0.112394  -0.071875
    27  H    0.417825  -0.066479  -0.010423   0.000322   0.002370  -0.000037
    28  H    0.000094  -0.000589   0.008023   0.026138  -0.017479   0.004210
    29  H   -0.000000   0.000002  -0.000011  -0.000016   0.000738  -0.000029
    30  O   -0.000446  -0.003299   0.002721   0.004871  -0.038243  -0.000404
    31  O    0.005735   0.013812  -0.025577  -0.022471   0.010158  -0.000066
    32  C   -0.002548  -0.001632   0.006630  -0.003965   0.003571  -0.000106
    33  C    0.000648  -0.006981   0.011260  -0.010386  -0.028445  -0.000569
    34  C   -0.000140   0.000363  -0.002026   0.001912   0.001063   0.000071
    35  H    0.000016   0.000079   0.000019  -0.000021  -0.000088  -0.000000
    36  H    0.000012   0.000069   0.000011  -0.000020  -0.000034  -0.000000
    37  H    0.000000   0.000010   0.000002   0.000003   0.000042  -0.000000
    38  H   -0.000000   0.000001  -0.000004  -0.000002   0.000012   0.000000
    39  H    0.000001   0.000012  -0.000002   0.000003   0.000035  -0.000000
               7          8          9         10         11         12
     1  C   -0.000637  -0.000528  -0.004559   0.000895   0.000044  -0.000049
     2  C   -0.000930   0.035952  -0.031847   0.011319  -0.001010  -0.000118
     3  C   -0.165368  -0.368636  -0.225040   0.117138   0.014311  -0.008364
     4  N   -0.334699  -0.220217  -0.137059   0.075358   0.007424  -0.006288
     5  C    0.245765  -1.074759  -1.285566   0.287636   0.114566  -0.012156
     6  O   -0.181508  -0.413539   0.322959  -0.106640  -0.018148   0.045251
     7  N    7.839421  -0.407284   0.380825   0.086970   0.013438  -0.004047
     8  C   -0.407284  28.511723 -13.050312  -5.255623   0.301283  -2.274480
     9  C    0.380825 -13.050312  30.498484  -1.737571  -1.743069   1.362729
    10  C    0.086970  -5.255623  -1.737571  16.179592  -0.475824   0.287174
    11  C    0.013438   0.301283  -1.743069  -0.475824   6.412367  -0.109208
    12  C   -0.004047  -2.274480   1.362729   0.287174  -0.109208   9.539175
    13  C    0.004780  -0.941710  -6.489323  -3.624311   0.922200  -3.026066
    14  H    0.000013  -0.000015   0.000002  -0.000000  -0.000000  -0.000000
    15  H    0.000013   0.000170  -0.000149   0.000023   0.000000   0.000000
    16  H    0.000075  -0.000651   0.000511  -0.000279  -0.000004  -0.000001
    17  H   -0.000441   0.000261  -0.000851   0.000566   0.000010   0.000002
    18  H    0.003734  -0.008461   0.008919  -0.003099   0.000023   0.000020
    19  H   -0.002839   0.014264  -0.013748   0.002307  -0.000003  -0.000050
    20  H    0.033187   0.020735   0.007941  -0.008024   0.000075  -0.000030
    21  H   -0.001054   0.019286  -0.000223   0.319635  -0.039566   0.021620
    22  F   -0.000273  -0.055927  -0.049666  -0.132701   0.331434  -0.130844
    23  N   -0.064076   0.521680  -1.189255   0.399861  -0.034698   0.053506
    24  H    0.000185  -0.022310   0.021047   0.030301  -0.035897   0.326099
    25  O   -0.019008   0.532246  -0.514324  -0.054578   0.008286   0.189083
    26  O    0.005097  -0.046192  -0.281184  -0.037702   0.026244  -0.065413
    27  H    0.000018  -0.000053   0.000063  -0.000025  -0.000000  -0.000000
    28  H    0.156508   0.043250   0.016828  -0.073821   0.003898  -0.001172
    29  H   -0.001116   0.106347   0.101808  -0.025177  -0.005765  -0.098568
    30  O   -0.037222   0.090508   0.021635  -0.049510  -0.002184  -0.000324
    31  O    0.011137   0.007904   0.002976  -0.008561  -0.000842   0.000012
    32  C   -0.000566  -0.036959   0.009838  -0.002743  -0.006155   0.000339
    33  C   -0.022018   0.010630   0.009795  -0.011035   0.000878   0.000162
    34  C    0.002832  -0.003448   0.002693   0.001214  -0.000961   0.000225
    35  H   -0.000009  -0.000034  -0.000085   0.000100  -0.000006   0.000000
    36  H    0.000027  -0.000059   0.000040  -0.000074   0.000005  -0.000000
    37  H   -0.000000  -0.000067   0.000107  -0.000261   0.000039  -0.000004
    38  H    0.000008   0.000038   0.000002  -0.000032  -0.000005  -0.000000
    39  H   -0.000035  -0.000582  -0.000028   0.000494  -0.000030   0.000014
              13         14         15         16         17         18
     1  C    0.000013   0.445339   0.420308  -0.031498  -0.032173  -0.012092
     2  C   -0.004621  -0.124589  -0.063702   0.426554   0.421307  -0.060360
     3  C    0.053365   0.030173  -0.012103  -0.085246  -0.071361   0.414485
     4  N    0.036032   0.000387   0.000084   0.004857   0.004977  -0.062522
     5  C    0.573152  -0.000738  -0.000424   0.001274  -0.009257   0.020705
     6  O    0.122663   0.000006  -0.000034  -0.000138  -0.000166   0.000016
     7  N    0.004780   0.000013   0.000013   0.000075  -0.000441   0.003734
     8  C   -0.941710  -0.000015   0.000170  -0.000651   0.000261  -0.008461
     9  C   -6.489323   0.000002  -0.000149   0.000511  -0.000851   0.008919
    10  C   -3.624311  -0.000000   0.000023  -0.000279   0.000566  -0.003099
    11  C    0.922200  -0.000000   0.000000  -0.000004   0.000010   0.000023
    12  C   -3.026066  -0.000000   0.000000  -0.000001   0.000002   0.000020
    13  C   18.345030   0.000000  -0.000009   0.000044  -0.000047   0.000924
    14  H    0.000000   0.500849  -0.025231  -0.003294  -0.003245  -0.000064
    15  H   -0.000009  -0.025231   0.500550  -0.004586   0.003926  -0.000383
    16  H    0.000044  -0.003294  -0.004586   0.484698  -0.029031   0.003960
    17  H   -0.000047  -0.003245   0.003926  -0.029031   0.494726  -0.005441
    18  H    0.000924  -0.000064  -0.000383   0.003960  -0.005441   0.527988
    19  H   -0.001294  -0.000059   0.002954  -0.005326   0.003988  -0.042284
    20  H    0.000670  -0.000001  -0.000000   0.000635   0.000623   0.001817
    21  H   -0.019311  -0.000000  -0.000000  -0.000000  -0.000000  -0.000000
    22  F    0.007890   0.000000   0.000000  -0.000000   0.000000  -0.000000
    23  N   -0.220761   0.000000   0.000012   0.000015   0.000011  -0.000179
    24  H   -0.006080   0.000000  -0.000000  -0.000000  -0.000000  -0.000000
    25  O   -0.278913   0.000000  -0.000000   0.000000  -0.000000   0.000006
    26  O    0.371276   0.000000   0.000005  -0.000026   0.000007  -0.000307
    27  H    0.000004  -0.025646  -0.029565   0.003878  -0.004727   0.002937
    28  H    0.008647  -0.000000   0.000000   0.000002   0.000002   0.000006
    29  H    0.251293  -0.000000   0.000000  -0.000000  -0.000000  -0.000000
    30  O    0.000222  -0.000000   0.000000  -0.000003   0.000011  -0.000002
    31  O    0.000557  -0.000024  -0.000004  -0.001043  -0.001153  -0.000021
    32  C    0.000335  -0.000063   0.000005  -0.000490   0.000069   0.000219
    33  C   -0.000611   0.000029  -0.000002  -0.000105   0.000033   0.000020
    34  C   -0.000407  -0.000000   0.000000  -0.000016  -0.000014   0.000002
    35  H   -0.000004  -0.000000   0.000000  -0.000000  -0.000000   0.000000
    36  H    0.000002  -0.000000   0.000000  -0.000000  -0.000000  -0.000000
    37  H    0.000016  -0.000000   0.000000  -0.000000  -0.000000  -0.000000
    38  H    0.000000   0.000000  -0.000000  -0.000000  -0.000000  -0.000000
    39  H   -0.000014   0.000000  -0.000000  -0.000000  -0.000000   0.000000
              19         20         21         22         23         24
     1  C   -0.005194  -0.000941   0.000001   0.000000   0.000881  -0.000000
     2  C   -0.041348  -0.005899   0.000005  -0.000000   0.001654   0.000000
     3  C    0.459593  -0.066848   0.000193   0.000061   0.013025  -0.000005
     4  N   -0.050556   0.182881  -0.000200   0.000007   0.036414  -0.000001
     5  C   -0.059755   0.027095   0.006210   0.002783  -0.093961  -0.000375
     6  O    0.002089   0.003974  -0.000176   0.000009  -0.028992   0.000003
     7  N   -0.002839   0.033187  -0.001054  -0.000273  -0.064076   0.000185
     8  C    0.014264   0.020735   0.019286  -0.055927   0.521680  -0.022310
     9  C   -0.013748   0.007941  -0.000223  -0.049666  -1.189255   0.021047
    10  C    0.002307  -0.008024   0.319635  -0.132701   0.399861   0.030301
    11  C   -0.000003   0.000075  -0.039566   0.331434  -0.034698  -0.035897
    12  C   -0.000050  -0.000030   0.021620  -0.130844   0.053506   0.326099
    13  C   -0.001294   0.000670  -0.019311   0.007890  -0.220761  -0.006080
    14  H   -0.000059  -0.000001  -0.000000   0.000000   0.000000   0.000000
    15  H    0.002954  -0.000000  -0.000000   0.000000   0.000012  -0.000000
    16  H   -0.005326   0.000635  -0.000000  -0.000000   0.000015  -0.000000
    17  H    0.003988   0.000623  -0.000000   0.000000   0.000011  -0.000000
    18  H   -0.042284   0.001817  -0.000000  -0.000000  -0.000179  -0.000000
    19  H    0.513039   0.001653   0.000000   0.000000   0.001416   0.000000
    20  H    0.001653   0.259322   0.000002   0.000000  -0.000706   0.000000
    21  H    0.000000   0.000002   0.429862  -0.003173   0.000355  -0.000125
    22  F    0.000000   0.000000  -0.003173   9.373066   0.000216  -0.002613
    23  N    0.001416  -0.000706   0.000355   0.000216   7.465279  -0.000072
    24  H    0.000000   0.000000  -0.000125  -0.002613  -0.000072   0.454871
    25  O   -0.000035   0.000008   0.000045  -0.000013   0.325922  -0.000111
    26  O    0.001092   0.000444   0.000005   0.000001   0.208340   0.000043
    27  H   -0.000293  -0.000000   0.000000  -0.000000  -0.000002   0.000000
    28  H    0.000000   0.004223   0.000869   0.000003   0.002323  -0.000000
    29  H   -0.000000  -0.000000   0.000009  -0.000372  -0.035894  -0.003618
    30  O   -0.000004   0.002235  -0.000304  -0.000007  -0.001589   0.000000
    31  O   -0.000062   0.040356  -0.000001   0.000000  -0.000073   0.000000
    32  C    0.000370  -0.004374   0.000312  -0.000012   0.002994  -0.000000
    33  C    0.000021   0.004828   0.000250  -0.000011   0.001239  -0.000000
    34  C   -0.000001  -0.000791  -0.000043   0.000004  -0.000094   0.000000
    35  H   -0.000000  -0.000003   0.000000   0.000000   0.000001   0.000000
    36  H    0.000000  -0.000004   0.000000   0.000000  -0.000000  -0.000000
    37  H    0.000000   0.000000   0.000000   0.000000   0.000000  -0.000000
    38  H   -0.000000   0.000000  -0.000000  -0.000000  -0.000000  -0.000000
    39  H    0.000000   0.000000   0.000000  -0.000000   0.000000  -0.000000
              25         26         27         28         29         30
     1  C    0.000015  -0.000183   0.417825   0.000094  -0.000000  -0.000446
     2  C    0.000224   0.002633  -0.066479  -0.000589   0.000002  -0.003299
     3  C   -0.002011  -0.039668  -0.010423   0.008023  -0.000011   0.002721
     4  N   -0.002948  -0.027233   0.000322   0.026138  -0.000016   0.004871
     5  C    0.013249   0.112394   0.002370  -0.017479   0.000738  -0.038243
     6  O   -0.004721  -0.071875  -0.000037   0.004210  -0.000029  -0.000404
     7  N   -0.019008   0.005097   0.000018   0.156508  -0.001116  -0.037222
     8  C    0.532246  -0.046192  -0.000053   0.043250   0.106347   0.090508
     9  C   -0.514324  -0.281184   0.000063   0.016828   0.101808   0.021635
    10  C   -0.054578  -0.037702  -0.000025  -0.073821  -0.025177  -0.049510
    11  C    0.008286   0.026244  -0.000000   0.003898  -0.005765  -0.002184
    12  C    0.189083  -0.065413  -0.000000  -0.001172  -0.098568  -0.000324
    13  C   -0.278913   0.371276   0.000004   0.008647   0.251293   0.000222
    14  H    0.000000   0.000000  -0.025646  -0.000000  -0.000000  -0.000000
    15  H   -0.000000   0.000005  -0.029565   0.000000   0.000000   0.000000
    16  H    0.000000  -0.000026   0.003878   0.000002  -0.000000  -0.000003
    17  H   -0.000000   0.000007  -0.004727   0.000002  -0.000000   0.000011
    18  H    0.000006  -0.000307   0.002937   0.000006  -0.000000  -0.000002
    19  H   -0.000035   0.001092  -0.000293   0.000000  -0.000000  -0.000004
    20  H    0.000008   0.000444  -0.000000   0.004223  -0.000000   0.002235
    21  H    0.000045   0.000005   0.000000   0.000869   0.000009  -0.000304
    22  F   -0.000013   0.000001  -0.000000   0.000003  -0.000372  -0.000007
    23  N    0.325922   0.208340  -0.000002   0.002323  -0.035894  -0.001589
    24  H   -0.000111   0.000043   0.000000  -0.000000  -0.003618   0.000000
    25  O    7.985715  -0.140606   0.000000   0.000064   0.019291  -0.000045
    26  O   -0.140606   7.965485  -0.000001  -0.001185  -0.002647  -0.000022
    27  H    0.000000  -0.000001   0.504472  -0.000000  -0.000000   0.000000
    28  H    0.000064  -0.001185  -0.000000   0.244571   0.000001   0.058440
    29  H    0.019291  -0.002647  -0.000000   0.000001   0.431061   0.000000
    30  O   -0.000045  -0.000022   0.000000   0.058440   0.000000   8.611394
    31  O    0.000001   0.000117  -0.000004  -0.001697  -0.000000  -0.189058
    32  C    0.000133  -0.001566  -0.000023  -0.005090   0.000001   0.356514
    33  C    0.000017  -0.000430  -0.000008   0.010660  -0.000000  -0.135536
    34  C   -0.000001   0.000009   0.000000  -0.001098  -0.000000   0.044587
    35  H    0.000000   0.000000   0.000000  -0.000005   0.000000   0.000486
    36  H    0.000000  -0.000000   0.000000  -0.000007  -0.000000   0.000535
    37  H    0.000000  -0.000000  -0.000000  -0.000001  -0.000000  -0.006023
    38  H   -0.000000   0.000000  -0.000000  -0.000000   0.000000   0.002437
    39  H    0.000000  -0.000000  -0.000000  -0.000000   0.000000  -0.006205
              31         32         33         34         35         36
     1  C    0.005735  -0.002548   0.000648  -0.000140   0.000016   0.000012
     2  C    0.013812  -0.001632  -0.006981   0.000363   0.000079   0.000069
     3  C   -0.025577   0.006630   0.011260  -0.002026   0.000019   0.000011
     4  N   -0.022471  -0.003965  -0.010386   0.001912  -0.000021  -0.000020
     5  C    0.010158   0.003571  -0.028445   0.001063  -0.000088  -0.000034
     6  O   -0.000066  -0.000106  -0.000569   0.000071  -0.000000  -0.000000
     7  N    0.011137  -0.000566  -0.022018   0.002832  -0.000009   0.000027
     8  C    0.007904  -0.036959   0.010630  -0.003448  -0.000034  -0.000059
     9  C    0.002976   0.009838   0.009795   0.002693  -0.000085   0.000040
    10  C   -0.008561  -0.002743  -0.011035   0.001214   0.000100  -0.000074
    11  C   -0.000842  -0.006155   0.000878  -0.000961  -0.000006   0.000005
    12  C    0.000012   0.000339   0.000162   0.000225   0.000000  -0.000000
    13  C    0.000557   0.000335  -0.000611  -0.000407  -0.000004   0.000002
    14  H   -0.000024  -0.000063   0.000029  -0.000000  -0.000000  -0.000000
    15  H   -0.000004   0.000005  -0.000002   0.000000   0.000000   0.000000
    16  H   -0.001043  -0.000490  -0.000105  -0.000016  -0.000000  -0.000000
    17  H   -0.001153   0.000069   0.000033  -0.000014  -0.000000  -0.000000
    18  H   -0.000021   0.000219   0.000020   0.000002   0.000000  -0.000000
    19  H   -0.000062   0.000370   0.000021  -0.000001  -0.000000   0.000000
    20  H    0.040356  -0.004374   0.004828  -0.000791  -0.000003  -0.000004
    21  H   -0.000001   0.000312   0.000250  -0.000043   0.000000   0.000000
    22  F    0.000000  -0.000012  -0.000011   0.000004   0.000000   0.000000
    23  N   -0.000073   0.002994   0.001239  -0.000094   0.000001  -0.000000
    24  H    0.000000  -0.000000  -0.000000   0.000000   0.000000  -0.000000
    25  O    0.000001   0.000133   0.000017  -0.000001   0.000000   0.000000
    26  O    0.000117  -0.001566  -0.000430   0.000009   0.000000  -0.000000
    27  H   -0.000004  -0.000023  -0.000008   0.000000   0.000000   0.000000
    28  H   -0.001697  -0.005090   0.010660  -0.001098  -0.000005  -0.000007
    29  H   -0.000000   0.000001  -0.000000  -0.000000   0.000000  -0.000000
    30  O   -0.189058   0.356514  -0.135536   0.044587   0.000486   0.000535
    31  O    8.575484   0.491409  -0.321405   0.042824  -0.002028  -0.002803
    32  C    0.491409   5.470443  -0.729241  -0.048343  -0.056833  -0.058468
    33  C   -0.321405  -0.729241   7.184114  -0.165921   0.421816   0.427118
    34  C    0.042824  -0.048343  -0.165921   5.705699  -0.047161  -0.051408
    35  H   -0.002028  -0.056833   0.421816  -0.047161   0.493639  -0.025282
    36  H   -0.002803  -0.058468   0.427118  -0.051408  -0.025282   0.496962
    37  H   -0.000009  -0.014056  -0.038776   0.408257  -0.003897   0.003617
    38  H   -0.000218   0.039101  -0.094265   0.389752  -0.002312  -0.002376
    39  H    0.000089  -0.008767  -0.046904   0.411046   0.003588  -0.003971
              37         38         39
     1  C    0.000000  -0.000000   0.000001
     2  C    0.000010   0.000001   0.000012
     3  C    0.000002  -0.000004  -0.000002
     4  N    0.000003  -0.000002   0.000003
     5  C    0.000042   0.000012   0.000035
     6  O   -0.000000   0.000000  -0.000000
     7  N   -0.000000   0.000008  -0.000035
     8  C   -0.000067   0.000038  -0.000582
     9  C    0.000107   0.000002  -0.000028
    10  C   -0.000261  -0.000032   0.000494
    11  C    0.000039  -0.000005  -0.000030
    12  C   -0.000004  -0.000000   0.000014
    13  C    0.000016   0.000000  -0.000014
    14  H   -0.000000   0.000000   0.000000
    15  H    0.000000  -0.000000  -0.000000
    16  H   -0.000000  -0.000000  -0.000000
    17  H   -0.000000  -0.000000  -0.000000
    18  H   -0.000000  -0.000000   0.000000
    19  H    0.000000  -0.000000   0.000000
    20  H    0.000000   0.000000   0.000000
    21  H    0.000000  -0.000000   0.000000
    22  F    0.000000  -0.000000  -0.000000
    23  N    0.000000  -0.000000   0.000000
    24  H   -0.000000  -0.000000  -0.000000
    25  O    0.000000  -0.000000   0.000000
    26  O   -0.000000   0.000000  -0.000000
    27  H   -0.000000  -0.000000  -0.000000
    28  H   -0.000001  -0.000000  -0.000000
    29  H   -0.000000   0.000000   0.000000
    30  O   -0.006023   0.002437  -0.006205
    31  O   -0.000009  -0.000218   0.000089
    32  C   -0.014056   0.039101  -0.008767
    33  C   -0.038776  -0.094265  -0.046904
    34  C    0.408257   0.389752   0.411046
    35  H   -0.003897  -0.002312   0.003588
    36  H    0.003617  -0.002376  -0.003971
    37  H    0.486078  -0.029669  -0.022047
    38  H   -0.029669   0.551850  -0.030246
    39  H   -0.022047  -0.030246   0.489827
 Mulliken charges:
               1
     1  C   -0.795064
     2  C   -0.300286
     3  C   -0.105215
     4  N   -0.724713
     5  C    0.499213
     6  O   -0.608579
     7  N   -0.540903
     8  C   -0.034432
     9  C   -0.015344
    10  C   -0.192993
    11  C    0.316852
    12  C   -0.088226
    13  C   -0.085636
    14  H    0.206170
    15  H    0.208145
    16  H    0.235232
    17  H    0.227390
    18  H    0.209432
    19  H    0.220067
    20  H    0.494916
    21  H    0.265514
    22  F   -0.339863
    23  N   -0.364791
    24  H    0.238657
    25  O   -0.056991
    26  O    0.023046
    27  H    0.205397
    28  H    0.513384
    29  H    0.262664
    30  O   -0.726165
    31  O   -0.625453
    32  C    0.599717
    33  C   -0.470868
    34  C   -0.690683
    35  H    0.218020
    36  H    0.216106
    37  H    0.216638
    38  H    0.175927
    39  H    0.213720
 Sum of Mulliken charges =  -1.00000
 Mulliken charges with hydrogens summed into heavy atoms:
               1
     1  C   -0.175352
     2  C    0.162336
     3  C    0.324284
     4  N   -0.229797
     5  C    0.499213
     6  O   -0.608579
     7  N   -0.027519
     8  C   -0.034432
     9  C   -0.015344
    10  C    0.072522
    11  C    0.316852
    12  C    0.150431
    13  C    0.177027
    22  F   -0.339863
    23  N   -0.364791
    25  O   -0.056991
    26  O    0.023046
    30  O   -0.726165
    31  O   -0.625453
    32  C    0.599717
    33  C   -0.036742
    34  C   -0.084398
 Electronic spatial extent (au):  <R**2>=           9358.6334
 Charge=             -1.0000 electrons
 Dipole moment (field-independent basis, Debye):
    X=              3.9095    Y=             -0.0378    Z=             -1.9235  Tot=              4.3573
 Quadrupole moment (field-independent basis, Debye-Ang):
   XX=           -150.7004   YY=           -169.3355   ZZ=           -140.7553
   XY=             17.3608   XZ=              0.5017   YZ=              3.2331
 Traceless Quadrupole moment (field-independent basis, Debye-Ang):
   XX=              2.8967   YY=            -15.7385   ZZ=             12.8418
   XY=             17.3608   XZ=              0.5017   YZ=              3.2331
 Octapole moment (field-independent basis, Debye-Ang**2):
  XXX=            123.9790  YYY=            -13.9857  ZZZ=             -7.4106  XYY=            -18.6335
  XXY=            -20.5939  XXZ=              8.6555  XZZ=            -14.4342  YZZ=             14.6687
  YYZ=            -16.3903  XYZ=             23.5858
 Hexadecapole moment (field-independent basis, Debye-Ang**3):
 XXXX=          -7240.6752 YYYY=          -5033.5510 ZZZZ=           -754.8821 XXXY=             44.7099
 XXXZ=             42.4689 YYYX=            124.9686 YYYZ=            -63.5927 ZZZX=            -32.6795
 ZZZY=            -19.6752 XXYY=          -2170.8895 XXZZ=          -1391.4086 YYZZ=           -937.8687
 XXYZ=             52.3619 YYXZ=            -16.1639 ZZXY=             27.4887
 N-N= 1.807308732455D+03 E-N=-6.311608171346D+03  KE= 1.135308124367D+03
 D1PCM: PCM CHGder 1st derivatives, ID1Alg=3 FixD1E=F DoIter=F DoCFld=F I1PDM=0.
 Calling FoFJK, ICntrl=      2127 FMM=F ISym2X=0 I1Cent= 0 IOpClX= 0 NMat=1 NMatS=1 NMatT=0.
 ***** Axes restored to original set *****
 -------------------------------------------------------------------
 Center     Atomic                   Forces (Hartrees/Bohr)
 Number     Number              X              Y              Z
 -------------------------------------------------------------------
      1        6          -0.004326282    0.001180194    0.001709834
      2        6           0.003072069   -0.004523473   -0.004605075
      3        6           0.001343090    0.002843774    0.001398362
      4        7           0.000466225   -0.067238138   -0.052774961
      5        6          -0.018288263    0.009374832    0.017090464
      6        8           0.004283648    0.007518045    0.025867104
      7        7           0.020518513   -0.062615550   -0.046016727
      8        6          -0.033844827    0.007231352    0.005444871
      9        6           0.025998641   -0.031108550    0.012306545
     10        6           0.002975263    0.001987762   -0.001311259
     11        6          -0.017343253    0.005241111   -0.003934914
[...]
 9,-0.00001634,0.00000696,0.00000016,0.00000005,-0.00000187,0.00004860,
 0.00067024,0.00053656,-0.00000348,-0.00000051,-0.00000171,-0.00273953,
 -0.00518871,0.00045343,-0.00004431,-0.00125505,0.00243704,-0.01005669,
 0.01067957,-0.02584134,0.03532205,-0.06843558,0.06546483,0.00788990,-0
 .00636965,0.01553564,-0.04087771,0.07673239,0.00000112,-0.00000283,0.0
 0000347,0.00000390,0.00001238,-0.00001987,-0.00006135,0.00002849,0.000
 03101,0.00008815,-0.00003569,-0.00002744,-0.00022271,0.00006452,0.0001
 5788,0.00004111,-0.00008772,-0.00012031,-0.00011120,-0.00049909,-0.000
 33987,0.00024706,0.00000954,-0.00001631,-0.00002625,-0.00004466,-0.000
 00598,-0.00008700,0.00006109,0.00002407,0.00010140,-0.00002000,-0.0000
 0327,-0.00003181,-0.00002845,-0.00000507,-0.00001189,-0.00001376,-0.00
 000638,0.00001412,0.00000145,-0.00000359,0.00000109,-0.00000205,-0.000
 00213,-0.00000137,-0.00001706,0.00000769,-0.00001719,0.00000173,-0.000
 00882,0.00001307,0.00000143,-0.00000184,0.00000800,-0.00000878,-0.0000
 0647,-0.00002750,0.00005208,0.00011173,0.00007426,0.00000792,0.0000136
 2,-0.00003985,0.00002515,0.00000509,-0.00004308,0.00009803,0.00000486,
 -0.00000352,-0.00000419,-0.00000286,0.00000628,-0.00004934,-0.00001280
 ,0.00002305,-0.00004293,0.00001264,-0.00000183,-0.00000034,0.00000633,
 0.00008563,0.00079450,0.00046536,-0.00000438,-0.00000111,-0.00000249,-
 0.00095217,-0.00417065,-0.00042796,0.00148442,-0.00217922,0.00264264,-
 0.00825404,0.01009252,-0.01576699,-0.09659604,0.06872443,-0.24100510,0
 .00449241,-0.00315488,0.00813198,0.10577010,-0.07350820,0.25826336,0.0
 0000504,0.00000389,0.00000570,-0.00000257,-0.00001725,-0.00000838,-0.0
 0000823,-0.00000615,0.00002412,0.00010436,0.00002918,0.00001858,-0.000
 26389,0.00000681,0.00012193,0.00005658,-0.00000875,-0.00006308,0.00004
 069,-0.00031941,-0.00017580,0.00002045,-0.00001717,-0.00000196,-0.0000
 0060,-0.00000864,-0.00000298,-0.00000526,0.00002535,-0.00001200,0.0000
 2045,0.00002055,0.00001536,-0.00000458,-0.00001458,-0.00000790,-0.0000
 1557,-0.00000753,-0.00000367,0.00000039,-0.00000128,0.00000039,-0.0000
 0223,0.00000421,0.00000099,0.00000066,0.00000662,-0.00000176,0.0000119
 3,0.00000319,0.00000601,0.00000332,-0.00000301,-0.00001297,0.00000201,
 0.00000473,-0.00000399,-0.00003233,-0.00005492,-0.00011755,0.00003107,
 0.00001028,0.00004333,-0.00000066,-0.00001764,-0.00001605,-0.00002076,
 0.00004452,0.00001987,-0.00000176,-0.00000305,0.00000234,0.00000360,-0
 .00002764,-0.00001571,0.00001122,-0.00001567,-0.00000583,0.00000015,-0
 .00000137,-0.00000542,0.00001717,0.00048388,0.00013909,-0.00000166,-0.
 00000114,0.00000156,0.00016141,-0.00188524,-0.00252094,0.00133428,0.00
 217236,-0.00033426,-0.00760326,-0.00369766,0.00437996,-0.16801259,-0.1
 0085740,0.08847552,-0.01776470,-0.01481691,0.01300098,0.00989328,0.008
 39416,-0.00659803,0.18422662,0.00000469,0.00000608,0.00000416,0.000015
 95,-0.00004019,-0.00002031,-0.00008540,0.00002531,0.00007207,0.0000815
 8,-0.00007728,-0.00001907,-0.00023967,0.00007214,0.00024664,0.00003120
 ,-0.00008313,-0.00017189,-0.00008963,-0.00059208,-0.00028905,0.0002657
 8,0.00000492,-0.00000410,-0.00003062,-0.00003515,-0.00001560,-0.000106
 30,0.00006604,0.00002142,0.00012530,-0.00005661,-0.00000665,-0.0000367
 5,-0.00001959,-0.00001017,-0.00000535,-0.00001332,-0.00000567,0.000016
 25,-0.00000547,-0.00000172,-0.00000071,0.00000749,0.00000121,-0.000007
 30,0.00000637,0.00000064,-0.00001662,0.00000065,0.00000204,0.00001124,
 -0.00000201,-0.00002286,0.00001642,-0.00000282,-0.00001088,-0.00000657
 ,0.00020029,0.00003644,0.00009794,0.00000189,0.00001788,-0.00005649,0.
 00005392,0.00001208,-0.00000325,0.00008800,0.00004201,-0.00000422,-0.0
 0000576,-0.00000092,-0.00000622,-0.00005591,-0.00003121,-0.00000258,-0
 .00003206,-0.00001421,-0.00000004,-0.00000403,-0.00000731,0.00010922,0
 .00099572,0.00026560,-0.00000427,-0.00000177,0.00000018,-0.00146212,-0
 .00272184,-0.00524868,0.00223636,0.00145251,-0.00292405,-0.01841417,-0
 .01335890,0.01800064,-0.10015346,-0.13174727,0.07367311,0.01445831,0.0
 1132084,-0.01047908,-0.00629464,-0.00594095,0.00442168,0.10747692,0.14
 067320,0.00000310,-0.00000099,0.00000335,0.00000002,-0.00000079,-0.000
 00880,0.00001739,-0.00000385,0.00000832,0.00000034,0.00001679,0.000048
 95,-0.00004822,-0.00000014,0.00005665,0.00000052,-0.00000362,-0.000035
 10,-0.00002208,-0.00023965,-0.00003269,0.00007470,0.00000406,-0.000007
 16,-0.00001189,-0.00000463,-0.00000295,-0.00003309,0.00001814,0.000014
 10,0.00002316,-0.00003462,-0.00000742,-0.00001088,0.00000344,-0.000001
 51,0.00000573,-0.00000248,-0.00000082,-0.00000706,0.00000062,0.0000005
 5,-0.00000060,-0.00000068,-0.00000126,0.00000115,0.00001044,-0.0000021
 0,0.00000707,-0.00000454,0.00001483,-0.00000281,-0.00000208,-0.0000051
 6,-0.00000317,0.00000194,-0.00000192,-0.00000457,0.00003104,-0.0000693
 0,0.00003329,-0.00000123,-0.00000465,-0.00001567,0.00002590,0.00000955
 ,0.00000165,-0.00000490,-0.00001024,-0.00000071,-0.00000120,-0.0000012
 2,0.00000040,0.00000655,0.00000493,-0.00000106,-0.00000164,0.00000663,
 0.00000120,-0.00000039,-0.00000332,0.00002230,0.00041249,-0.00002454,-
 0.00000145,-0.00000038,-0.00000025,-0.00170579,-0.00122488,-0.00390088
 ,-0.00037297,0.00158216,-0.00070434,-0.01237706,-0.01297763,0.01063343
 ,0.08705916,0.07123263,-0.10571538,0.00373389,0.00291481,-0.00328422,0
 .01979433,0.01695750,-0.01403972,-0.09659953,-0.07682686,0.11580490,0.
 00000311,0.00000540,-0.00000102,0.00000126,-0.00002390,0.00000142,-0.0
 0000413,0.00000340,0.00000384,0.00005394,0.00007521,0.00003628,-0.0001
 1323,-0.00000750,0.00002671,0.00003322,0.00001147,0.00000506,0.0000281
 8,0.00000541,-0.00004094,-0.00000820,-0.00000891,0.00000924,-0.0000008
 7,0.00000945,0.00000243,-0.00000688,-0.00000172,-0.00001479,0.00001884
 ,-0.00002986,-0.00000518,0.00000105,0.00000533,-0.00000175,0.00000187,
 0.00000202,-0.00000060,0.00000258,-0.00000313,-0.00000012,-0.00000180,
 0.00000602,0.00000333,-0.00000174,0.00000063,-0.00000130,0.00000094,0.
 00000845,-0.00000436,0.00000145,-0.00000123,-0.00000301,0.00000163,0.0
 0000553,0.00000361,-0.00001623,-0.00009160,-0.00006868,0.00001087,-0.0
 0000395,0.00001429,-0.00001041,0.00002659,0.00000710,0.00001606,-0.000
 00342,0.00002474,0.00000019,-0.00000087,0.00000212,-0.00000537,-0.0000
 0434,-0.00001123,-0.00000999,0.00000604,-0.00001889,-0.00000033,-0.000
 00184,-0.00000166,0.00000679,-0.00000782,0.00002798,0.00000001,0.00000
 017,0.00000197,0.00147220,-0.00012809,-0.00073648,0.00071584,0.0004886
 2,0.00007911,-0.00162275,-0.00162873,-0.00098437,-0.01910696,-0.015449
 12,0.01444445,-0.17034570,-0.10200613,0.09023832,0.00074060,-0.0005396
 7,-0.00064328,-0.00394735,0.00396301,0.00078174,0.18683279,0.00000092,
 0.00000026,-0.00000073,-0.00000227,-0.00000272,0.00000251,0.00001794,-
 0.00000492,-0.00001347,0.00001317,0.00004356,0.00003353,-0.00000418,-0
 .00002386,-0.00004933,0.00001136,0.00003263,0.00004518,0.00007847,0.00
 011749,0.00007258,-0.00011654,-0.00000756,-0.00000353,0.00001662,0.000
 00926,0.00000541,0.00005679,-0.00002935,0.00000278,-0.00008811,0.00006
 913,0.00001564,0.00001872,-0.00000123,0.00000006,-0.00000595,0.0000051
 4,0.,-0.00000251,-0.00000038,0.00000021,-0.00000062,0.00000183,0.00000
 093,0.00000164,-0.00000122,-0.00000059,0.00000410,0.00000323,-0.000001
 12,-0.00000174,-0.00000072,0.00000298,-0.00000292,0.00000404,0.0000030
 9,-0.00000670,-0.00007336,-0.00005647,-0.00003473,0.00001820,-0.000009
 85,0.00004772,-0.00006219,-0.00001993,-0.00001451,-0.00002082,-0.00001
 709,0.00000213,0.00000293,0.00000214,0.00000715,0.00001567,0.00001024,
 0.00001115,0.00000605,0.00000852,-0.00000014,-0.00000029,0.00000050,-0
 .00004109,-0.00022188,-0.00009891,0.00000110,0.00000007,0.00000090,-0.
 00020641,-0.00096819,-0.00022523,-0.00034776,0.00023925,0.00038016,0.0
 0027050,0.00023775,-0.00073837,0.01328773,0.01147643,-0.00995460,-0.10
 339617,-0.13275607,0.07688903,-0.00084908,0.00093876,0.00024567,0.0034
 9497,-0.00173083,-0.00146307,0.11025906,0.14297933,-0.00000292,-0.0000
 0189,-0.00000386,-0.00000144,0.00001049,0.00001058,0.00003271,-0.00000
 878,-0.00003064,-0.00009615,-0.00001387,0.00000675,0.00019643,-0.00004
 595,-0.00011971,-0.00004270,0.00003399,0.00006568,-0.00006053,0.000157
 22,0.00012734,0.00005113,0.00001185,0.00000223,-0.00002421,0.00001743,
 -0.00000449,-0.00002706,-0.00003467,0.00004230,-0.00002746,-0.00006918
 ,-0.00003857,0.00000347,0.00003289,0.00001067,0.00003206,0.00001225,0.
 00000743,-0.00000583,0.00000100,0.00000072,0.00000057,-0.00000210,0.00
 000036,0.00000217,-0.00000170,-0.00000020,0.00000310,-0.00000217,-0.00
 000368,-0.00000661,0.00000141,0.00001166,-0.00000483,0.00000074,0.0000
 0501,0.00002221,-0.00001667,-0.00000953,-0.00001602,-0.00005171,-0.000
 11112,-0.00000219,0.00005769,0.00003424,0.00004534,-0.00008150,-0.0000
 1825,0.00000305,0.00000479,-0.00000088,-0.00000770,0.00004996,0.000020
 06,-0.00002426,0.00003157,-0.00000071,0.00000017,0.00000136,0.00000276
 ,-0.00005928,-0.00027279,-0.00013533,0.00000058,0.00000157,-0.00000031
 ,-0.00193535,0.00012199,0.00071677,-0.00089713,-0.00009422,-0.00016472
 ,0.00244764,0.00100053,0.00044988,0.00342415,0.00302487,-0.00330908,0.
 08988589,0.07511735,-0.11481180,-0.00029106,-0.00044397,0.00051171,0.0
 0089203,-0.00110947,0.00082719,-0.09901569,-0.08273977,0.11912167,0.00
 000500,0.00000517,-0.00000149,-0.00000800,-0.00001089,0.00000390,0.000
 04268,0.00000882,-0.00002467,0.00013900,0.00020087,0.00018394,-0.00025
 195,-0.00000933,0.00002051,0.00007992,0.00003558,0.00004151,0.00010562
 ,-0.00002834,-0.00003405,-0.00011199,-0.00001787,-0.00000416,0.0000209
 5,0.00000663,0.00000701,0.00004171,0.00000233,-0.00001682,-0.00000204,
 0.00003590,0.00001369,0.00000856,-0.00001020,-0.00000207,-0.00001743,-
 0.00000443,-0.00000294,-0.00000426,0.00000012,0.00000021,-0.00000285,0
 .00000215,0.00000331,0.00000415,-0.00000634,0.00000033,0.00001080,0.00
 000888,-0.00001056,-0.00000367,0.00000018,0.00001045,-0.00000800,0.000
 00827,0.00001170,-0.00008439,-0.00030565,-0.00029988,-0.00000926,0.000
 03370,0.00003417,0.00000616,-0.00003351,-0.00001316,-0.00002594,0.0000
 1712,0.00000135,-0.00000083,-0.00000206,-0.00000042,0.00000654,-0.0000
 1149,-0.00000341,0.00001533,-0.00000712,0.00000017,-0.00000108,0.,0.00
 000387,-0.00000434,0.00003478,0.00001096,0.00000057,-0.00000035,0.0000
 0055,0.00214002,-0.00064902,-0.00014509,-0.00030907,0.00280072,0.00184
 327,-0.00677907,-0.00077187,-0.00178691,0.00767324,0.02467704,0.017459
 19,-0.06280136,-0.05017718,-0.03488798,0.00107999,-0.00070834,-0.00058
 334,0.00103615,-0.00094482,-0.00006571,-0.00489473,-0.01588909,-0.0140
 0318,0.06693181,-0.00000788,-0.00000758,0.00000650,0.00001144,0.000023
 92,-0.00001471,-0.00009925,0.00000777,0.00007287,-0.00009155,-0.000274
 19,-0.00024644,0.00015324,0.00012152,0.00017259,-0.00007634,-0.0001394
 5,-0.00018465,-0.00021274,-0.00028239,-0.00017482,0.00027163,0.0000238
 7,0.00000459,-0.00002443,-0.00004871,-0.00001677,-0.00010645,0.0000561
 9,0.00000837,0.00014041,-0.00003401,0.00000147,-0.00003948,-0.00002729
 ,-0.00000871,-0.00000484,-0.00001187,-0.00000581,0.00001288,0.00000248
 ,0.00000031,0.00000533,-0.00000946,-0.00000816,-0.00000783,0.00000917,
 0.00000019,-0.00002198,-0.00001939,0.00001900,0.00000970,0.00000267,-0
 .00002337,0.00001467,-0.00002127,-0.00002228,0.00005458,0.00047860,0.0
 0043021,0.00007145,0.00001194,0.00004701,-0.00006322,0.00004735,0.0000
 0498,0.00000659,0.00010986,0.00004907,-0.00000490,-0.00000548,-0.00000
 136,-0.00001229,-0.00007136,-0.00003550,-0.00001142,-0.00003941,-0.000
 01376,0.00000089,0.00000161,-0.00000753,0.00014474,0.00054038,0.000271
 18,-0.00000248,-0.00000180,-0.00000164,0.00012380,-0.00072130,-0.00081
 525,0.00132551,-0.00264862,-0.00162267,0.00250100,0.00208343,0.0014530
 5,-0.00626360,-0.01373680,-0.00927128,-0.04959123,-0.21589707,-0.11644
 618,-0.00027889,0.00004908,0.00055653,0.00013353,0.00082304,-0.0000446
 3,-0.00332299,-0.01409359,-0.01050681,0.05307322,0.23382549,-0.0000039
 7,-0.00000322,0.00000392,0.00000601,0.00000899,-0.00000723,-0.00005824
 ,0.00000655,0.00004240,-0.00003306,-0.00014327,-0.00012058,0.00006111,
 0.00007616,0.00010385,-0.00003481,-0.00008096,-0.00010543,-0.00012085,
 -0.00018981,-0.00010584,0.00015776,0.00001212,-0.00000022,-0.00001317,
 -0.00003042,-0.00001178,-0.00005936,0.00003219,0.00002034,0.00008224,-
 0.00001514,-0.00000053,-0.00002405,-0.00001731,-0.00000641,-0.00000446
 ,-0.00000804,-0.00000290,0.00000824,0.00000058,0.00000086,0.00000299,-
 0.00000455,-0.00000429,-0.00000393,0.00000577,-0.00000044,-0.00001312,
 -0.00001023,0.00000972,0.00000453,0.00000205,-0.00001281,0.00000873,-0
 .00001193,-0.00001179,0.00001731,0.00024680,0.00021428,0.00004778,0.00
 003299,-0.00000114,-0.00003746,0.00002070,0.00000641,0.00000034,0.0000
 6831,0.00002780,-0.00000305,-0.00000349,-0.00000158,-0.00000638,-0.000
 04435,-0.00002125,-0.00000466,-0.00002452,-0.00000679,-0.00000015,0.00
 000067,-0.00000542,0.00009438,0.00035696,0.00016953,-0.00000151,-0.000
 00123,-0.00000094,0.00027844,-0.00091313,0.00011901,0.00074751,-0.0012
 0629,-0.00068675,0.00040930,0.00088365,0.00129276,-0.00238325,-0.00380
 389,-0.00393416,-0.03457762,-0.11655720,-0.13257094,0.00028774,0.00019
 745,0.00051626,0.00000224,0.00008517,-0.00025832,0.00273403,0.01360464
 ,0.01050725,0.03821624,0.13069608,0.13936411,0.00000125,0.00000051,-0.
 00000312,-0.00000358,0.00000559,0.00000192,0.00001581,0.00000742,-0.00
 002537,0.00000694,0.00003621,0.00006760,-0.00000491,-0.00001332,-0.000
 05037,0.00000860,0.00001862,0.00004101,-0.00000852,0.00003148,0.000039
 25,0.00001632,0.00000569,-0.00000011,-0.00000760,0.00000997,0.00000015
 ,-0.00001706,-0.00001378,0.00000780,0.00001080,-0.00004342,-0.00001402
 ,0.00000133,0.00001201,0.00000326,0.00000833,0.00000333,0.00000253,-0.
 00000010,0.00000075,-0.00000124,-0.00000085,0.,0.00000152,0.00000333,-
 0.00001172,0.00000377,-0.00000020,0.00000421,-0.00001301,-0.00000174,0
 .00000148,0.00001485,-0.00000243,0.00000118,0.00000635,-0.00001337,-0.
 00008648,-0.00009564,0.00000655,-0.00002519,-0.00002289,-0.00000949,0.
 00003950,0.00001395,0.00000446,-0.00002462,-0.00001474,0.00000119,0.00
 000089,-0.00000042,0.00000089,0.00001878,0.00001159,-0.00000033,0.0000
 0662,0.00000531,-0.00000115,0.00000008,0.00000747,-0.00000963,-0.00004
 626,-0.00003019,-0.00000032,0.00000094,-0.00000036,0.00066243,-0.00051
 447,0.00047202,0.00029855,0.00010848,0.00050726,-0.00071533,-0.0011499
 8,-0.00106754,-0.01224695,0.00950516,-0.02447164,-0.09604137,0.0360785
 2,-0.09789941,-0.00423049,0.00335328,0.00186264,0.00070714,-0.00093897
 ,-0.00027682,0.01015321,-0.00659074,0.01950888,-0.00402794,0.00218918,
 -0.00578384,0.10543623,-0.00000230,-0.00000079,-0.00000243,0.00000070,
 0.00000043,0.00000907,0.00002727,-0.00001370,-0.00001453,-0.00007099,0
 .00000561,-0.00001856,0.00013905,-0.00004276,-0.00006851,-0.00003138,0
 .00003245,0.00004142,0.00000204,0.00018379,0.00010259,-0.00001885,0.00
 000248,0.00001513,-0.00000957,0.00002111,-0.00000213,0.00000253,-0.000
 02382,-0.00002418,-0.00004492,-0.00002958,-0.00000512,0.00001128,0.000
 02526,0.00000386,0.00002010,0.00001021,0.00000648,-0.00000607,0.000000
 15,0.00000085,0.00000006,-0.00000020,0.00000070,-0.00000072,0.00000458
 ,-0.00000295,0.00000570,-0.00000113,0.00000258,-0.00000382,-0.00000034
 ,0.00000054,-0.00000389,0.00000320,0.00000239,0.00002408,-0.00001339,0
 .00001257,-0.00003937,-0.00007801,-0.00001130,0.00001340,0.00002680,0.
 00000504,0.00004350,-0.00006391,0.00000564,0.00000262,0.00000357,0.000
 00328,-0.00000891,0.00003371,0.00000525,-0.00002420,0.00002877,-0.0000
 1264,0.00000133,0.00000095,-0.00000145,-0.00006873,-0.00031220,-0.0001
 3012,0.00000136,0.00000082,0.00000162,-0.00167817,0.00071652,-0.001155
 45,-0.00084146,0.00004045,-0.00031438,0.00212372,0.00044290,0.00156051
 ,0.00716700,-0.00623938,0.01555900,0.03557831,-0.07467219,0.07288553,0
 .00318358,-0.00146190,-0.00132818,-0.00053273,0.00072855,-0.00037365,0
 .00838298,-0.00620182,0.01580628,-0.01136356,0.00987266,-0.02326885,-0
 .04198096,0.07697010,0.00000236,0.00000170,-0.00000115,-0.00000251,-0.
 00000392,-0.00000271,0.00000810,0.00000488,-0.00001189,0.00004886,0.00
 004496,0.00005595,-0.00007667,-0.00000883,-0.00002424,0.00002848,0.000
 02076,0.00003339,0.00008502,0.00004211,0.00003947,-0.00011417,-0.00000
 548,-0.00000578,0.00002441,0.00000219,0.00000467,0.00005598,-0.0000163
 0,-0.00000151,-0.00006196,0.00008210,0.00002053,0.00001331,-0.00001452
 ,-0.00000177,-0.00001715,-0.00000139,0.00000010,0.00000031,-0.00000019
 ,-0.00000069,-0.00000124,0.00000195,0.00000106,0.00000195,-0.00000429,
 0.00000229,0.00000198,0.00000372,-0.00000443,0.00000002,-0.00000131,0.
 00000560,-0.00000123,0.00000304,0.00000277,-0.00001879,-0.00007450,-0.
 00008527,-0.00002108,0.00004519,0.00000823,0.00003985,-0.00007596,-0.0
 0001728,-0.00003971,0.00000905,-0.00002564,0.00000081,0.00000168,-0.00
 000215,0.00001243,0.00000043,0.00001010,0.00002576,-0.00000876,0.00001
 899,-0.00000053,-0.00000124,0.00000340,-0.00001493,-0.00008488,-0.0000
 6532,0.00000063,-0.00000017,-0.00000070,0.00101714,-0.00106214,-0.0005
 3358,0.00025035,0.00051655,0.00020601,-0.00120871,-0.00101558,-0.00026
 748,0.00366425,-0.00239043,0.00759974,-0.09874599,0.07480008,-0.245711
 79,0.00136820,-0.00157511,0.00091559,-0.00064220,0.00031678,0.00068991
 ,-0.00689442,0.00406538,-0.01371939,-0.00598048,0.00567832,-0.01452098
 ,0.10719155,-0.07929589,0.26538593\\0.00000314,-0.00000077,-0.00000145
 ,-0.00000350,-0.00000003,0.00000145,0.00000051,-0.00000239,-0.00000141
 ,0.00000605,0.00000054,-0.00000131,-0.00000811,0.00000340,-0.00000060,
 0.00000021,-0.00000173,0.00000169,0.00000705,-0.00000285,0.00000280,-0
 .00000661,0.00000453,-0.00000007,0.00000121,0.00000199,-0.00000209,0.0
 0000092,-0.00000040,-0.00000031,0.00000108,-0.00000057,0.00000021,-0.0
 0000175,0.00000153,0.00000033,0.00000167,-0.00000209,0.00000116,0.0000
 0011,-0.00000016,-0.00000060,-0.00000055,-0.00000049,-0.00000025,0.000
 00061,-0.00000021,-0.00000114,0.00000051,-0.00000018,-0.00000095,0.000
 00017,0.00000122,0.00000029,-0.00000154,0.00000093,-0.00000047,0.00000
 124,0.00000274,0.00000139,-0.00000037,0.00000098,0.00000056,0.00000018
 ,0.00000117,0.00000058,0.00000081,-0.00000554,-0.00000117,0.00000029,0
 .00000009,-0.00000031,-0.00000206,0.00000655,0.00000173,-0.00000252,0.
 00000074,-0.00000121,-0.00000110,-0.00000036,-0.00000025,0.00000237,-0
 .00000914,-0.00000328,-0.00000033,-0.00000013,-0.00000036,-0.00000355,
 0.00000692,0.00000456,-0.00000522,-0.00000202,-0.00000216,0.00000520,0
 .00000029,0.,0.00000177,-0.00000104,-0.00000194,0.00000005,-0.00000127
 ,0.00000057,-0.00000049,-0.00000139,0.00000146,0.00000077,-0.00000062,
 0.00000106,0.00000020,-0.00000062,0.00000071,0.00000101,-0.00000006,0.
 00000059,0.00000055,0.00000046,0.00000022\\\@


 SUCCESS IS NEVER CERTAIN,
 FAILURE IS NEVER FINAL.
 Job cpu time:       0 days  7 hours  6 minutes 47.6 seconds.
 File lengths (MBytes):  RWF=   1008 Int=      0 D2E=      0 Chk=     28 Scr=      1
 Normal termination of Gaussian 09 at Tue Feb 19 14:05:36 2019.
WARNING: pbs_rusage is deprecated and values produced may not be accurate


=============================================================================
                                     Resource usage:
                                       CPU time:              30:25:16
   JobId:    5877205.r-man2            Elapsed time:          03:50:03
   Project:             q95            Requested time:        44:00:00
   Service Units:     30.67 
                                       Max physical memory:     1559MB
                                       Max virtual memory:      2928MB
                                       Requested memory:           0MB

                                       Number of cpus:               8

                                       Max jobfs disk use:       1.0GB
                                       Requested jobfs:         20.0GB
=============================================================================

