 Entering Gaussian System, Link 0=/apps/gaussian/g09e01/g09/g09
 AtFile(1): /home/507/hio507/Basis/6-31pGd.gbs
 Initial command:
 /apps/gaussian/g09e01/g09/l1.exe "/jobfs/local/5877204.r-man2/Gau-10781.inp" -scrdir="/jobfs/local/5877204.r-man2/"
 Entering Link 1 = /apps/gaussian/g09e01/g09/l1.exe PID=     10782.
  
 Copyright (c) 1988,1990,1992,1993,1995,1998,2003,2009,2015,
            Gaussian, Inc.  All Rights Reserved.
  
 This is part of the Gaussian(R) 09 program.  It is based on
 the Gaussian(R) 03 system (copyright 2003, Gaussian, Inc.),
 the Gaussian(R) 98 system (copyright 1998, Gaussian, Inc.),
 the Gaussian(R) 94 system (copyright 1995, Gaussian, Inc.),
 the Gaussian 92(TM) system (copyright 1992, Gaussian, Inc.),
 the Gaussian 90(TM) system (copyright 1990, Gaussian, Inc.),
 the Gaussian 88(TM) system (copyright 1988, Gaussian, Inc.),
 the Gaussian 86(TM) system (copyright 1986, Carnegie Mellon
 University), and the Gaussian 82(TM) system (copyright 1983,
 Carnegie Mellon University). Gaussian is a federally registered
 trademark of Gaussian, Inc.
  
 This software contains proprietary and confidential information,
 including trade secrets, belonging to Gaussian, Inc.
  
 This software is provided under written license and may be
 used, copied, transmitted, or stored only in accord with that
 written license.
  
 The following legend is applicable only to US Government
 contracts under FAR:
  
                    RESTRICTED RIGHTS LEGEND
  
 Use, reproduction and disclosure by the US Government is
 subject to restrictions as set forth in subparagraphs (a)
 and (c) of the Commercial Computer Software - Restricted
 Rights clause in FAR 52.227-19.
  
 Gaussian, Inc.
 340 Quinnipiac St., Bldg. 40, Wallingford CT 06492
  
  
 ---------------------------------------------------------------
 Warning -- This program may not be used in any manner that
 competes with the business of Gaussian, Inc. or will provide
 assistance to any competitor of Gaussian, Inc.  The licensee
 of this program is prohibited from giving any competitor of
 Gaussian, Inc. access to this program.  By using this program,
 the user acknowledges that Gaussian, Inc. is engaged in the
 business of creating and licensing software in the field of
 computational chemistry and represents and warrants to the
 licensee that it is not a competitor of Gaussian, Inc. and that
 it will not use this program in any manner prohibited above.
 ---------------------------------------------------------------
  

 Cite this work as:
 Gaussian 09, Revision E.01,
 M. J. Frisch, G. W. Trucks, H. B. Schlegel, G. E. Scuseria, 
 M. A. Robb, J. R. Cheeseman, G. Scalmani, V. Barone, B. Mennucci, 
 G. A. Petersson, H. Nakatsuji, M. Caricato, X. Li, H. P. Hratchian, 
 A. F. Izmaylov, J. Bloino, G. Zheng, J. L. Sonnenberg, M. Hada, 
 M. Ehara, K. Toyota, R. Fukuda, J. Hasegawa, M. Ishida, T. Nakajima, 
 Y. Honda, O. Kitao, H. Nakai, T. Vreven, J. A. Montgomery, Jr., 
 J. E. Peralta, F. Ogliaro, M. Bearpark, J. J. Heyd, E. Brothers, 
 K. N. Kudin, V. N. Staroverov, T. Keith, R. Kobayashi, J. Normand, 
 K. Raghavachari, A. Rendell, J. C. Burant, S. S. Iyengar, J. Tomasi, 
 M. Cossi, N. Rega, J. M. Millam, M. Klene, J. E. Knox, J. B. Cross, 
 V. Bakken, C. Adamo, J. Jaramillo, R. Gomperts, R. E. Stratmann, 
 O. Yazyev, A. J. Austin, R. Cammi, C. Pomelli, J. W. Ochterski, 
 R. L. Martin, K. Morokuma, V. G. Zakrzewski, G. A. Voth, 
 P. Salvador, J. J. Dannenberg, S. Dapprich, A. D. Daniels, 
 O. Farkas, J. B. Foresman, J. V. Ortiz, J. Cioslowski, 
 and D. J. Fox, Gaussian, Inc., Wallingford CT, 2013.
 
 ******************************************
 Gaussian 09:  ES64L-G09RevE.01 30-Nov-2015
                19-Feb-2019 
 ******************************************
 %chk=2Nitro4Fluro_OS_EtO.M062X_6-31pGd_opt.chk
 %mem=196608000
 %nproc=8
 Will use up to    8 processors via shared memory.
 ----------------------------------------------------------------------
 # M062X/Gen 6D SCF=Tight INT(grid=ultrafine) OPT IOP(2/17=4) maxdisk=2
 684354560
 ----------------------------------------------------------------------
 1/14=-1,18=20,19=15,26=4,38=1/1,3;
 2/9=110,12=2,17=4,18=5,40=1/2;
 3/5=7,8=2,11=2,16=1,25=1,30=1,71=1,74=-55,75=-5/1,2,3;
 4//1;
 5/5=2,32=2,38=5/2;
 6/7=2,8=2,9=2,10=2,28=1/1;
 7//1,2,3,16;
 1/14=-1,18=20,19=15,26=4/3(2);
 2/9=110,17=4/2;
 99//99;
 2/9=110,17=4/2;
 3/5=7,6=1,8=2,11=2,16=1,25=1,30=1,71=1,74=-55,75=-5,82=7/1,2,3;
 4/5=5,16=3,69=1/1;
 5/5=2,32=2,38=5/2;
 7//1,2,3,16;
 1/14=-1,18=20,19=15,26=4/3(-5);
 2/9=110,17=4/2;
 6/7=2,8=2,9=2,10=2,19=2,28=1/1;
 99/9=1/99;
 -------------------------------------
 2Nitro4Fluro_OS_EtO.M062X_6-31pGd_opt
 -------------------------------------
 Symbolic Z-matrix:
 Charge = -1 Multiplicity = 1
 C                    -1.07835   2.67149   1.17132 
 C                     0.10314   2.00791   0.46991 
 C                     1.42099   2.70491   0.82402 
 N                     2.5467    2.07106   0.15724 
 C                     3.81824   2.54183   0.30544 
 O                     4.01629   3.50934   1.02727 
 N                     4.86118   1.91303  -0.32607 
 C                     6.23257   2.36188  -0.30516 
 C                     6.57719   3.75612  -0.35841 
 C                     7.28224   1.42034  -0.15875 
 C                     8.61284   1.82025  -0.06245 
 C                     8.93914   3.16739  -0.099 
 C                     7.93829   4.12233  -0.24208 
 H                    -2.01785   2.14984   0.89182 
 H                    -1.15956   3.73703   0.86758 
 H                    -0.05759   2.05856  -0.62918 
 H                     0.15142   0.94066   0.77722 
 H                     1.57647   2.66103   1.92465 
 H                     1.36157   3.77019   0.50881 
 H                     2.3582    1.16452  -0.51067 
 H                     7.09302   0.36146  -0.07937 
 F                     9.59087   0.89225   0.08452 
 N                     5.61544   4.80191  -0.57544 
 H                     9.97378   3.47622  -0.01977 
 O                     5.94658   5.94632  -0.48868 
 O                     4.53939   4.55852  -1.02737 
 H                    -0.95397   2.61455   2.27371 
 H                     4.60295   0.98482  -0.94249 
 H                     8.23862   5.16164  -0.28157 
 O                     4.12867  -0.4504   -2.36595 
 O                     1.95792  -0.34559  -1.8748 
 C                     2.85132  -0.86108  -2.53159 
 C                     2.50871  -1.95381  -3.50734 
 C                     3.73677  -2.50996  -4.22485 
 H                     1.79642  -1.55627  -4.26161 
 H                     2.01626  -2.78257  -2.95425 
 H                     4.23964  -1.70968  -4.80832 
 H                     3.42625  -3.31682  -4.92171 
 H                     4.45349  -2.93467  -3.48927 
 
 Add virtual bond connecting atoms O30        and H28        Dist= 3.92D+00.
 Add virtual bond connecting atoms O31        and H20        Dist= 3.92D+00.

 GradGradGradGradGradGradGradGradGradGradGradGradGradGradGradGradGradGrad
 Berny optimization.
 Initialization pass.
                           ----------------------------
                           !    Initial Parameters    !
                           ! (Angstroms and Degrees)  !
 --------------------------                            --------------------------
 ! Name  Definition              Value          Derivative Info.                !
 --------------------------------------------------------------------------------
 ! R1    R(1,2)                  1.5259         estimate D2E/DX2                !
 ! R2    R(1,14)                 1.1104         estimate D2E/DX2                !
 ! R3    R(1,15)                 1.111          estimate D2E/DX2                !
 ! R4    R(1,27)                 1.1108         estimate D2E/DX2                !
 ! R5    R(2,3)                  1.5323         estimate D2E/DX2                !
 ! R6    R(2,16)                 1.1119         estimate D2E/DX2                !
 ! R7    R(2,17)                 1.1117         estimate D2E/DX2                !
 ! R8    R(3,4)                  1.4538         estimate D2E/DX2                !
 ! R9    R(3,18)                 1.1124         estimate D2E/DX2                !
 ! R10   R(3,19)                 1.1125         estimate D2E/DX2                !
 ! R11   R(4,5)                  1.364          estimate D2E/DX2                !
 ! R12   R(4,20)                 1.1417         estimate D2E/DX2                !
 ! R13   R(5,6)                  1.2232         estimate D2E/DX2                !
 ! R14   R(5,7)                  1.3718         estimate D2E/DX2                !
 ! R15   R(7,8)                  1.4431         estimate D2E/DX2                !
 ! R16   R(7,28)                 1.1438         estimate D2E/DX2                !
 ! R17   R(8,9)                  1.4372         estimate D2E/DX2                !
 ! R18   R(8,10)                 1.4177         estimate D2E/DX2                !
 ! R19   R(9,13)                 1.4143         estimate D2E/DX2                !
 ! R20   R(9,23)                 1.4373         estimate D2E/DX2                !
 ! R21   R(10,11)                1.3927         estimate D2E/DX2                !
 ! R22   R(10,21)                1.0786         estimate D2E/DX2                !
 ! R23   R(11,12)                1.3866         estimate D2E/DX2                !
 ! R24   R(11,22)                1.3562         estimate D2E/DX2                !
 ! R25   R(12,13)                1.3907         estimate D2E/DX2                !
 ! R26   R(12,24)                1.0827         estimate D2E/DX2                !
 ! R27   R(13,29)                1.0826         estimate D2E/DX2                !
 ! R28   R(20,31)                2.074          estimate D2E/DX2                !
 ! R29   R(23,25)                1.1945         estimate D2E/DX2                !
 ! R30   R(23,26)                1.1922         estimate D2E/DX2                !
 ! R31   R(28,30)                2.0763         estimate D2E/DX2                !
 ! R32   R(30,32)                1.3519         estimate D2E/DX2                !
 ! R33   R(31,32)                1.2228         estimate D2E/DX2                !
 ! R34   R(32,33)                1.5045         estimate D2E/DX2                !
 ! R35   R(33,34)                1.5272         estimate D2E/DX2                !
 ! R36   R(33,35)                1.111          estimate D2E/DX2                !
 ! R37   R(33,36)                1.1114         estimate D2E/DX2                !
 ! R38   R(34,37)                1.1107         estimate D2E/DX2                !
 ! R39   R(34,38)                1.1104         estimate D2E/DX2                !
 ! R40   R(34,39)                1.1114         estimate D2E/DX2                !
 ! A1    A(2,1,14)             109.581          estimate D2E/DX2                !
 ! A2    A(2,1,15)             110.3671         estimate D2E/DX2                !
 ! A3    A(2,1,27)             110.3158         estimate D2E/DX2                !
 ! A4    A(14,1,15)            108.6583         estimate D2E/DX2                !
 ! A5    A(14,1,27)            108.6909         estimate D2E/DX2                !
 ! A6    A(15,1,27)            109.1881         estimate D2E/DX2                !
 ! A7    A(1,2,3)              111.2167         estimate D2E/DX2                !
 ! A8    A(1,2,16)             108.8224         estimate D2E/DX2                !
 ! A9    A(1,2,17)             108.9092         estimate D2E/DX2                !
 ! A10   A(3,2,16)             109.3919         estimate D2E/DX2                !
 ! A11   A(3,2,17)             109.6007         estimate D2E/DX2                !
 ! A12   A(16,2,17)            108.8601         estimate D2E/DX2                !
 ! A13   A(2,3,4)              111.2007         estimate D2E/DX2                !
 ! A14   A(2,3,18)             109.3241         estimate D2E/DX2                !
 ! A15   A(2,3,19)             108.9138         estimate D2E/DX2                !
 ! A16   A(4,3,18)             109.1691         estimate D2E/DX2                !
 ! A17   A(4,3,19)             109.2012         estimate D2E/DX2                !
 ! A18   A(18,3,19)            108.9995         estimate D2E/DX2                !
 ! A19   A(3,4,5)              121.4349         estimate D2E/DX2                !
 ! A20   A(3,4,20)             119.1214         estimate D2E/DX2                !
 ! A21   A(5,4,20)             119.442          estimate D2E/DX2                !
 ! A22   A(4,5,6)              119.2118         estimate D2E/DX2                !
 ! A23   A(4,5,7)              120.0341         estimate D2E/DX2                !
 ! A24   A(6,5,7)              120.7366         estimate D2E/DX2                !
 ! A25   A(5,7,8)              124.9757         estimate D2E/DX2                !
 ! A26   A(5,7,28)             116.6429         estimate D2E/DX2                !
 ! A27   A(8,7,28)             118.3439         estimate D2E/DX2                !
 ! A28   A(7,8,9)              121.9422         estimate D2E/DX2                !
 ! A29   A(7,8,10)             119.9041         estimate D2E/DX2                !
 ! A30   A(9,8,10)             118.0725         estimate D2E/DX2                !
 ! A31   A(8,9,13)             118.6148         estimate D2E/DX2                !
 ! A32   A(8,9,23)             123.4371         estimate D2E/DX2                !
 ! A33   A(13,9,23)            117.9043         estimate D2E/DX2                !
 ! A34   A(8,10,11)            121.5897         estimate D2E/DX2                !
 ! A35   A(8,10,21)            121.9871         estimate D2E/DX2                !
 ! A36   A(11,10,21)           116.386          estimate D2E/DX2                !
 ! A37   A(10,11,12)           120.1312         estimate D2E/DX2                !
 ! A38   A(10,11,22)           119.9993         estimate D2E/DX2                !
 ! A39   A(12,11,22)           119.8642         estimate D2E/DX2                !
 ! A40   A(11,12,13)           120.0317         estimate D2E/DX2                !
 ! A41   A(11,12,24)           120.0068         estimate D2E/DX2                !
 ! A42   A(13,12,24)           119.961          estimate D2E/DX2                !
 ! A43   A(9,13,12)            121.5513         estimate D2E/DX2                !
 ! A44   A(9,13,29)            120.836          estimate D2E/DX2                !
 ! A45   A(12,13,29)           117.6018         estimate D2E/DX2                !
 ! A46   A(9,23,25)            120.0421         estimate D2E/DX2                !
 ! A47   A(9,23,26)            120.8405         estimate D2E/DX2                !
 ! A48   A(25,23,26)           118.2506         estimate D2E/DX2                !
 ! A49   A(28,30,32)           120.6505         estimate D2E/DX2                !
 ! A50   A(20,31,32)           121.2794         estimate D2E/DX2                !
 ! A51   A(30,32,31)           119.7647         estimate D2E/DX2                !
 ! A52   A(30,32,33)           121.0144         estimate D2E/DX2                !
 ! A53   A(31,32,33)           119.2193         estimate D2E/DX2                !
 ! A54   A(32,33,34)           112.7112         estimate D2E/DX2                !
 ! A55   A(32,33,35)           109.0517         estimate D2E/DX2                !
 ! A56   A(32,33,36)           108.6473         estimate D2E/DX2                !
 ! A57   A(34,33,35)           109.0801         estimate D2E/DX2                !
 ! A58   A(34,33,36)           108.5755         estimate D2E/DX2                !
 ! A59   A(35,33,36)           108.6994         estimate D2E/DX2                !
 ! A60   A(33,34,37)           110.3942         estimate D2E/DX2                !
 ! A61   A(33,34,38)           109.5475         estimate D2E/DX2                !
 ! A62   A(33,34,39)           110.2911         estimate D2E/DX2                !
 ! A63   A(37,34,38)           108.6912         estimate D2E/DX2                !
 ! A64   A(37,34,39)           109.3322         estimate D2E/DX2                !
 ! A65   A(38,34,39)           108.5433         estimate D2E/DX2                !
 ! A66   L(4,20,31,2,-1)       178.8995         estimate D2E/DX2                !
 ! A67   L(7,28,30,1,-1)       180.8553         estimate D2E/DX2                !
 ! A68   L(4,20,31,2,-2)       173.9237         estimate D2E/DX2                !
 ! A69   L(7,28,30,1,-2)       168.9198         estimate D2E/DX2                !
 ! D1    D(14,1,2,3)           179.681          estimate D2E/DX2                !
 ! D2    D(14,1,2,16)           59.109          estimate D2E/DX2                !
 ! D3    D(14,1,2,17)          -59.4308         estimate D2E/DX2                !
 ! D4    D(15,1,2,3)            60.0599         estimate D2E/DX2                !
 ! D5    D(15,1,2,16)          -60.512          estimate D2E/DX2                !
 ! D6    D(15,1,2,17)         -179.0518         estimate D2E/DX2                !
 ! D7    D(27,1,2,3)           -60.6897         estimate D2E/DX2                !
 ! D8    D(27,1,2,16)          178.7384         estimate D2E/DX2                !
 ! D9    D(27,1,2,17)           60.1986         estimate D2E/DX2                !
 ! D10   D(1,2,3,4)            179.9085         estimate D2E/DX2                !
 ! D11   D(1,2,3,18)            59.2952         estimate D2E/DX2                !
 ! D12   D(1,2,3,19)           -59.7069         estimate D2E/DX2                !
 ! D13   D(16,2,3,4)           -59.8558         estimate D2E/DX2                !
 ! D14   D(16,2,3,18)          179.5309         estimate D2E/DX2                !
 ! D15   D(16,2,3,19)           60.5288         estimate D2E/DX2                !
 ! D16   D(17,2,3,4)            59.4272         estimate D2E/DX2                !
 ! D17   D(17,2,3,18)          -61.186          estimate D2E/DX2                !
 ! D18   D(17,2,3,19)          179.8119         estimate D2E/DX2                !
 ! D19   D(2,3,4,5)            178.6791         estimate D2E/DX2                !
 ! D20   D(2,3,4,20)            -0.849          estimate D2E/DX2                !
 ! D21   D(18,3,4,5)           -60.6163         estimate D2E/DX2                !
 ! D22   D(18,3,4,20)          119.8556         estimate D2E/DX2                !
 ! D23   D(19,3,4,5)            58.4644         estimate D2E/DX2                !
 ! D24   D(19,3,4,20)         -121.0637         estimate D2E/DX2                !
 ! D25   D(3,4,5,6)              0.83           estimate D2E/DX2                !
 ! D26   D(3,4,5,7)            179.3217         estimate D2E/DX2                !
 ! D27   D(20,4,5,6)          -179.6434         estimate D2E/DX2                !
 ! D28   D(20,4,5,7)            -1.1517         estimate D2E/DX2                !
 ! D29   D(3,4,31,32)          175.1548         estimate D2E/DX2                !
 ! D30   D(5,4,31,32)           -0.2107         estimate D2E/DX2                !
 ! D31   D(4,5,7,8)            176.3213         estimate D2E/DX2                !
 ! D32   D(4,5,7,28)            -1.4047         estimate D2E/DX2                !
 ! D33   D(6,5,7,8)             -5.2103         estimate D2E/DX2                !
 ! D34   D(6,5,7,28)           177.0637         estimate D2E/DX2                !
 ! D35   D(5,7,8,9)            -37.911          estimate D2E/DX2                !
 ! D36   D(5,7,8,10)           138.7476         estimate D2E/DX2                !
 ! D37   D(28,7,8,9)           139.7795         estimate D2E/DX2                !
 ! D38   D(28,7,8,10)          -43.5619         estimate D2E/DX2                !
 ! D39   D(5,7,30,32)           -3.9406         estimate D2E/DX2                !
 ! D40   D(8,7,30,32)         -174.6267         estimate D2E/DX2                !
 ! D41   D(7,8,9,13)           175.7588         estimate D2E/DX2                !
 ! D42   D(7,8,9,23)            -6.7051         estimate D2E/DX2                !
 ! D43   D(10,8,9,13)           -0.9586         estimate D2E/DX2                !
 ! D44   D(10,8,9,23)          176.5776         estimate D2E/DX2                !
 ! D45   D(7,8,10,11)         -176.5231         estimate D2E/DX2                !
 ! D46   D(7,8,10,21)            1.1764         estimate D2E/DX2                !
 ! D47   D(9,8,10,11)            0.2635         estimate D2E/DX2                !
 ! D48   D(9,8,10,21)          177.9631         estimate D2E/DX2                !
 ! D49   D(8,9,13,12)            0.9721         estimate D2E/DX2                !
 ! D50   D(8,9,13,29)          179.7398         estimate D2E/DX2                !
 ! D51   D(23,9,13,12)        -176.7014         estimate D2E/DX2                !
 ! D52   D(23,9,13,29)           2.0664         estimate D2E/DX2                !
 ! D53   D(8,9,23,25)          173.2323         estimate D2E/DX2                !
 ! D54   D(8,9,23,26)          -17.6115         estimate D2E/DX2                !
 ! D55   D(13,9,23,25)          -9.2152         estimate D2E/DX2                !
 ! D56   D(13,9,23,26)         159.941          estimate D2E/DX2                !
 ! D57   D(8,10,11,12)           0.4671         estimate D2E/DX2                !
 ! D58   D(8,10,11,22)         179.6259         estimate D2E/DX2                !
 ! D59   D(21,10,11,12)       -177.3549         estimate D2E/DX2                !
 ! D60   D(21,10,11,22)          1.8039         estimate D2E/DX2                !
 ! D61   D(10,11,12,13)         -0.481          estimate D2E/DX2                !
 ! D62   D(10,11,12,24)        179.7417         estimate D2E/DX2                !
 ! D63   D(22,11,12,13)       -179.641          estimate D2E/DX2                !
 ! D64   D(22,11,12,24)          0.5818         estimate D2E/DX2                !
 ! D65   D(11,12,13,9)          -0.249          estimate D2E/DX2                !
 ! D66   D(11,12,13,29)       -179.055          estimate D2E/DX2                !
 ! D67   D(24,12,13,9)         179.5283         estimate D2E/DX2                !
 ! D68   D(24,12,13,29)          0.7223         estimate D2E/DX2                !
 ! D69   D(28,30,32,31)          2.9188         estimate D2E/DX2                !
 ! D70   D(28,30,32,33)       -176.623          estimate D2E/DX2                !
 ! D71   D(20,31,32,30)          0.4023         estimate D2E/DX2                !
 ! D72   D(20,31,32,33)        179.9524         estimate D2E/DX2                !
 ! D73   D(30,32,33,34)          0.7209         estimate D2E/DX2                !
 ! D74   D(30,32,33,35)       -120.5738         estimate D2E/DX2                !
 ! D75   D(30,32,33,36)        121.0987         estimate D2E/DX2                !
 ! D76   D(31,32,33,34)       -178.8234         estimate D2E/DX2                !
 ! D77   D(31,32,33,35)         59.8819         estimate D2E/DX2                !
 ! D78   D(31,32,33,36)        -58.4456         estimate D2E/DX2                !
 ! D79   D(32,33,34,37)        -60.9191         estimate D2E/DX2                !
 ! D80   D(32,33,34,38)        179.4236         estimate D2E/DX2                !
 ! D81   D(32,33,34,39)         60.0123         estimate D2E/DX2                !
 ! D82   D(35,33,34,37)         60.3594         estimate D2E/DX2                !
 ! D83   D(35,33,34,38)        -59.2979         estimate D2E/DX2                !
 ! D84   D(35,33,34,39)       -178.7092         estimate D2E/DX2                !
 ! D85   D(36,33,34,37)        178.6618         estimate D2E/DX2                !
 ! D86   D(36,33,34,38)         59.0045         estimate D2E/DX2                !
 ! D87   D(36,33,34,39)        -60.4068         estimate D2E/DX2                !
 --------------------------------------------------------------------------------
 Trust Radius=3.00D-01 FncErr=1.00D-07 GrdErr=1.00D-06
 Number of steps in this run=    206 maximum allowed number of steps=    234.
 GradGradGradGradGradGradGradGradGradGradGradGradGradGradGradGradGradGrad

                          Input orientation:                          
 ---------------------------------------------------------------------
 Center     Atomic      Atomic             Coordinates (Angstroms)
 Number     Number       Type             X           Y           Z
 ---------------------------------------------------------------------
      1          6           0       -1.078350    2.671490    1.171320
      2          6           0        0.103140    2.007910    0.469910
      3          6           0        1.420990    2.704910    0.824020
      4          7           0        2.546700    2.071060    0.157240
      5          6           0        3.818240    2.541830    0.305440
      6          8           0        4.016290    3.509340    1.027270
      7          7           0        4.861180    1.913030   -0.326070
      8          6           0        6.232570    2.361880   -0.305160
      9          6           0        6.577190    3.756120   -0.358410
     10          6           0        7.282240    1.420340   -0.158750
     11          6           0        8.612840    1.820250   -0.062450
     12          6           0        8.939140    3.167390   -0.099000
     13          6           0        7.938290    4.122330   -0.242080
     14          1           0       -2.017850    2.149840    0.891820
     15          1           0       -1.159560    3.737030    0.867580
     16          1           0       -0.057590    2.058560   -0.629180
     17          1           0        0.151420    0.940660    0.777220
     18          1           0        1.576470    2.661030    1.924650
     19          1           0        1.361570    3.770190    0.508810
     20          1           0        2.358200    1.164520   -0.510670
     21          1           0        7.093020    0.361460   -0.079370
     22          9           0        9.590870    0.892250    0.084520
     23          7           0        5.615440    4.801910   -0.575440
     24          1           0        9.973780    3.476220   -0.019770
     25          8           0        5.946580    5.946320   -0.488680
     26          8           0        4.539390    4.558520   -1.027370
     27          1           0       -0.953970    2.614550    2.273710
     28          1           0        4.602950    0.984820   -0.942490
     29          1           0        8.238620    5.161640   -0.281570
     30          8           0        4.128670   -0.450400   -2.365950
     31          8           0        1.957920   -0.345590   -1.874800
     32          6           0        2.851320   -0.861080   -2.531590
     33          6           0        2.508710   -1.953810   -3.507340
     34          6           0        3.736770   -2.509960   -4.224850
     35          1           0        1.796420   -1.556270   -4.261610
     36          1           0        2.016260   -2.782570   -2.954250
     37          1           0        4.239640   -1.709680   -4.808320
     38          1           0        3.426250   -3.316820   -4.921710
     39          1           0        4.453490   -2.934670   -3.489270
 ---------------------------------------------------------------------
                    Distance matrix (angstroms):
                    1          2          3          4          5
     1  C    0.000000
     2  C    1.525855   0.000000
     3  C    2.523576   1.532296   0.000000
     4  N    3.811806   2.464292   1.453817   0.000000
     5  C    4.974249   3.756872   2.458115   1.363965   0.000000
     6  O    5.165085   4.228201   2.724702   2.232778   1.223249
     7  N    6.172152   4.825094   3.712774   2.369679   1.371830
     8  C    7.464945   6.188371   4.954192   3.726128   2.496839
     9  C    7.881865   6.756898   5.393476   4.398883   3.086584
    10  C    8.557682   7.230486   6.080313   4.790472   3.670492
    11  C    9.806425   8.528401   7.300079   6.075296   4.862531
    12  C   10.109883   8.929891   7.588704   6.490831   5.174796
    13  C    9.241344   8.146611   6.754321   5.782422   4.446636
    14  H    1.110360   2.167199   3.484009   4.623952   5.878558
    15  H    1.110958   2.177707   2.779642   4.125094   5.150048
    16  H    2.158572   1.111935   2.171579   2.720467   4.016108
    17  H    2.159496   1.111662   2.174069   2.720211   4.028882
    18  H    2.759653   2.171068   1.112423   2.100750   2.767956
    19  H    2.756677   2.165823   1.112524   2.101232   2.754170
    20  H    4.112168   2.599642   2.243337   1.141688   2.166734
    21  H    8.583225   7.202147   6.203209   4.862894   3.953008
    22  F   10.871020   9.560870   8.401163   7.142493   6.007760
    23  N    7.238555   6.267746   4.893803   4.172712   3.018914
    24  H   11.145217   9.991259   8.628854   7.560908   6.234542
    25  O    7.926522   7.111664   5.719343   5.195579   4.092800
    26  O    6.320927   5.331770   4.072829   3.400231   2.522594
    27  H    1.110845   2.176968   2.783918   4.126684   5.162690
    28  H    6.292076   4.825959   4.025436   2.572448   2.144150
    29  H    9.752829   8.757669   7.330616   6.491702   5.171822
    30  O    7.026488   5.503661   5.240555   3.902163   4.023199
    31  O    5.253623   3.804844   4.108220   3.211860   4.068345
    32  C    6.452356   4.979217   5.101201   3.989993   4.534696
    33  C    7.493348   6.107414   6.453486   5.443360   6.038455
    34  C    8.896710   7.460240   7.618976   6.450172   6.786070
    35  H    7.460227   6.160995   6.645467   5.765993   6.460660
    36  H    7.506245   6.191413   6.688954   5.789686   6.497842
    37  H    9.123144   7.667517   7.691336   6.466593   6.663592
    38  H    9.657965   8.274381   8.561292   7.456446   7.861332
    39  H    9.151578   7.683082   7.720453   6.479986   6.692938
                    6          7          8          9         10
     6  O    0.000000
     7  N    2.256895   0.000000
     8  C    2.829122   1.443126   0.000000
     9  C    2.922194   2.518475   1.437186   0.000000
    10  C    4.054256   2.476342   1.417653   2.448025   0.000000
    11  C    5.016850   3.762055   2.453152   2.824722   1.392730
    12  C    5.061607   4.272556   2.831408   2.448000   2.408541
    13  C    4.167624   3.789019   2.452069   1.414297   2.781743
    14  H    6.186876   6.990021   8.339494   8.832776   9.387627
    15  H    5.183316   6.403209   7.609858   7.833308   8.813875
    16  H    4.630884   4.930249   6.305799   6.853855   7.382529
    17  H    4.647350   4.934024   6.338123   7.106827   7.207963
    18  H    2.734528   4.051489   5.171152   5.605246   6.199651
    19  H    2.717422   4.048869   5.135419   5.287245   6.404824
    20  H    3.257714   2.619018   4.060375   4.953731   4.943224
    21  H    4.538730   2.729348   2.189300   3.444947   1.078579
    22  F    6.230079   4.855980   3.686440   4.180934   2.380721
    23  N    2.607048   2.996118   2.531333   1.437269   3.793003
    24  H    6.048891   5.355003   3.914058   3.424886   3.389741
    25  O    3.458756   4.179948   3.600511   2.282896   4.730469
    26  O    2.365578   2.755719   2.865951   2.289974   4.257452
    27  H    5.201706   6.408350   7.639422   8.059132   8.670534
    28  H    3.255353   1.143779   2.226689   3.452373   2.825336
    29  H    4.719240   4.686422   3.444336   2.177554   3.863557
    30  O    5.215948   3.206787   4.072121   5.265005   4.279767
    31  O    5.245892   3.991096   5.297811   6.360906   5.866150
    32  C    5.755277   4.074254   5.174680   6.318493   5.519810
    33  C    7.258202   5.532363   6.538063   7.685804   6.736804
    34  C    7.993427   6.002302   6.732593   7.891838   6.674637
    35  H    7.652482   6.075958   7.119327   8.143232   7.469129
    36  H    7.709783   6.086835   7.159631   8.384207   7.294506
    37  H    7.832124   5.796629   6.389665   7.425686   6.377534
    38  H    9.073862   7.108464   7.838086   8.987692   7.745652
    39  H    7.881341   5.802779   6.430950   7.686290   6.169303
                   11         12         13         14         15
    11  C    0.000000
    12  C    1.386576   0.000000
    13  C    2.405589   1.390713   0.000000
    14  H   10.678522  11.048654  10.212794   0.000000
    15  H   10.001940  10.160832   9.173368   1.804556   0.000000
    16  H    8.692199   9.080294   8.266988   2.482819   2.504374
    17  H    8.548354   9.107695   8.473331   2.486158   3.089744
    18  H    7.359754   7.652481   6.877708   3.774545   3.124265
    19  H    7.530572   7.625770   6.628807   3.767321   2.546745
    20  H    6.304871   6.891279   6.321249   4.699750   4.570779
    21  H    2.106705   3.358837   3.858121   9.335388   8.966396
    22  F    1.356218   2.373751   3.642953  11.704514  11.147991
    23  N    4.258857   3.734385   2.443070   8.213005   7.008345
    24  H    2.143879   1.082651   2.147114  12.099152  11.171691
    25  O    4.931031   4.102404   2.711948   8.930352   7.564234
    26  O    5.002218   4.706901   3.515603   7.244476   6.061659
    27  H    9.879899  10.188671   9.363487   1.804831   1.810920
    28  H    4.189467   4.927234   4.632390   6.968282   6.637585
    29  H    3.369413   2.121578   1.082554  10.753742   9.574750
    30  O    5.528991   6.431803   6.319327   7.426575   7.480352
    31  O    7.229345   8.014482   7.641525   5.448679   5.822982
    32  C    6.817719   7.694649   7.480207   6.670397   6.984564
    33  C    7.960603   8.899096   8.778482   7.528765   8.061128
    34  C    7.736430   8.736109   8.803550   9.000539   9.430365
    35  H    8.688925   9.521488   9.280393   7.405521   7.941375
    36  H    8.547709   9.564557   9.492310   7.442779   8.197402
    37  H    7.355853   8.249170   8.279064   9.302885   9.541166
    38  H    8.769413   9.782406   9.879190   9.660214  10.212851
    39  H    7.186971   8.297597   8.514066   9.323327   9.746797
                   16         17         18         19         20
    16  H    0.000000
    17  H    1.808686   0.000000
    18  H    3.091144   2.511381   0.000000
    19  H    2.497742   3.089134   1.811359   0.000000
    20  H    2.578642   2.564888   2.963347   2.970207   0.000000
    21  H    7.369780   7.018193   6.303685   6.694394   4.821768
    22  F    9.744867   9.464956   8.411021   8.728341   7.262224
    23  N    6.301756   6.826013   5.210288   4.509485   4.883074
    24  H   10.149361  10.175609   8.657951   8.633422   7.973832
    25  O    7.154333   7.761637   5.976216   5.172315   5.978509
    26  O    5.247912   5.966551   4.592797   3.616608   4.067408
    27  H    3.088591   2.502654   2.554825   3.132427   4.563533
    28  H    4.792882   4.772365   4.493301   4.513436   2.292959
    29  H    8.864369   9.183709   7.450148   7.060783   7.113986
    30  O    5.180350   5.256718   5.882514   5.808138   3.030610
    31  O    3.375468   3.457035   4.860153   4.793420   2.074007
    32  C    4.539297   4.635078   5.821390   5.736902   2.903505
    33  C    5.564963   5.682625   7.188347   7.085871   4.327432
    34  C    6.942434   7.055651   8.319999   8.215193   5.403461
    35  H    5.449669   5.859223   7.490248   7.163601   4.667745
    36  H    5.757026   5.591416   7.323241   7.440435   4.654839
    37  H    7.080327   7.411889   8.457450   8.159910   5.501876
    38  H    7.710880   7.831248   9.275183   9.164014   6.378120
    39  H    7.311792   7.192282   8.300580   8.396414   5.483216
                   21         22         23         24         25
    21  H    0.000000
    22  F    2.558877   0.000000
    23  N    4.706052   5.614716   0.000000
    24  H    4.243119   2.614268   4.589265   0.000000
    25  O    5.715988   6.257238   1.194510   4.747590   0.000000
    26  O    5.003503   6.339975   1.192209   5.631982   2.048502
    27  H    8.681443  10.906536   7.487279  11.199029   8.145494
    28  H    2.708136   5.093394   3.966111   5.992020   5.160210
    29  H    4.939131   4.493361   2.663989   2.433097   2.431474
    30  O    3.830788   6.135401   5.744839   7.422144   6.909918
    31  O    5.485685   7.977036   6.446902   9.072011   7.577524
    32  C    5.049753   7.439068   6.598207   8.709239   7.752084
    33  C    6.174735   8.435550   7.992970   9.867910   9.129256
    34  C    6.057596   8.025970   8.385168   9.613394   9.505309
    35  H    7.015896   9.254056   8.282464  10.497065   9.367373
    36  H    6.627469   8.950594   8.725662  10.540671   9.885341
    37  H    5.898675   7.703609   7.887389   9.094181   8.954734
    38  H    7.100930   8.987833   9.465537  10.632241  10.574005
    39  H    5.427615   7.335528   8.348365   9.143880   9.492357
                   26         27         28         29         30
    26  O    0.000000
    27  H    6.697250   0.000000
    28  H    3.575273   6.624147   0.000000
    29  H    3.821554   9.875264   5.576803   0.000000
    30  O    5.200939   7.533498   2.076304   7.261634   0.000000
    31  O    5.606462   5.869554   3.104090   8.503832   2.228086
    32  C    5.872335   7.046357   3.000132   8.388012   1.351931
    33  C    7.258399   8.141290   4.427171   9.688503   2.487425
    34  C    7.799454   9.512882   4.872129   9.729828   2.801943
    35  H    7.441428   8.226226   5.034909  10.122894   3.202478
    36  H    7.998166   8.079773   4.993132  10.438939   3.201154
    37  H    7.326375   9.789162   4.726200   9.148680   2.750140
    38  H    8.855842  10.302502   5.976866  10.796948   3.904058
    39  H    7.887726   9.656418   4.676626   9.495619   2.745715
                   31         32         33         34         35
    31  O    0.000000
    32  C    1.222811   0.000000
    33  C    2.356889   1.504503   0.000000
    34  C    3.656712   2.523877   1.527172   0.000000
    35  H    2.681173   2.142212   1.110999   2.162368   0.000000
    36  H    2.665987   2.137309   1.111422   2.156130   1.805916
    37  H    3.958854   2.798402   2.179052   1.110749   2.508336
    38  H    4.501984   3.474748   2.167976   1.110432   2.488295
    39  H    3.941791   2.789960   2.178206   1.111370   3.091362
                   36         37         38         39
    36  H    0.000000
    37  H    3.087408   0.000000
    38  H    2.478789   1.804816   0.000000
    39  H    2.499894   1.812795   1.803648   0.000000
 Stoichiometry    C13H17FN3O5(1-)
 Framework group  C1[X(C13H17FN3O5)]
 Deg. of freedom   111
 Full point group                 C1      NOp   1
 Largest Abelian subgroup         C1      NOp   1
 Largest concise Abelian subgroup C1      NOp   1
                         Standard orientation:                         
 ---------------------------------------------------------------------
 Center     Atomic      Atomic             Coordinates (Angstroms)
 Number     Number       Type             X           Y           Z
 ---------------------------------------------------------------------
      1          6           0       -4.414328   -3.876399   -0.747919
      2          6           0       -3.738443   -2.518688   -0.580488
      3          6           0       -2.212667   -2.648050   -0.637097
      4          7           0       -1.569109   -1.353972   -0.479683
      5          6           0       -0.210688   -1.231423   -0.471050
      6          8           0        0.479825   -2.230975   -0.613966
      7          7           0        0.366266    0.005675   -0.334549
      8          6           0        1.785070    0.250452   -0.236097
      9          6           0        2.659707   -0.628579    0.490414
     10          6           0        2.362842    1.345878   -0.925997
     11          6           0        3.736865    1.573051   -0.913727
     12          6           0        4.578328    0.713521   -0.223987
     13          6           0        4.050413   -0.372508    0.465890
     14          1           0       -5.516543   -3.752198   -0.696960
     15          1           0       -4.096896   -4.568699    0.060899
     16          1           0       -4.036319   -2.088197    0.400505
     17          1           0       -4.085566   -1.841120   -1.390549
     18          1           0       -1.916473   -3.086692   -1.615539
     19          1           0       -1.877607   -3.325088    0.179643
     20          1           0       -2.217399   -0.422810   -0.352762
     21          1           0        1.769837    2.025828   -1.517050
     22          9           0        4.256005    2.626906   -1.591378
     23          7           0        2.192534   -1.730140    1.286689
     24          1           0        5.646547    0.889645   -0.219258
     25          8           0        2.974480   -2.494654    1.767245
     26          8           0        1.054920   -1.791113    1.638087
     27          1           0       -4.151140   -4.319508   -1.731973
     28          1           0       -0.345348    0.897772   -0.257096
     29          1           0        4.741412   -1.009034    1.003736
     30          8           0       -1.587633    2.475073    0.271948
     31          8           0       -3.414675    1.214144    0.081307
     32          6           0       -2.929306    2.313101    0.309295
     33          6           0       -3.841398    3.469097    0.617984
     34          6           0       -3.082061    4.773631    0.850046
     35          1           0       -4.436769    3.229182    1.524788
     36          1           0       -4.536632    3.611464   -0.237375
     37          1           0       -2.394019    4.672206    1.716115
     38          1           0       -3.803429    5.590689    1.062423
     39          1           0       -2.496863    5.045173   -0.054914
 ---------------------------------------------------------------------
 Rotational constants (GHZ):      0.2655754      0.1693993      0.1154043
 General basis read from cards:  (6D, 7F)
 There are   452 symmetry adapted cartesian basis functions of A   symmetry.
 There are   452 symmetry adapted basis functions of A   symmetry.
   452 basis functions,   772 primitive gaussians,   452 cartesian basis functions
    83 alpha electrons       83 beta electrons
       nuclear repulsion energy      1807.3183443552 Hartrees.
 NAtoms=   39 NActive=   39 NUniq=   39 SFac= 1.00D+00 NAtFMM=   60 NAOKFM=F Big=F
 Integral buffers will be    131072 words long.
 Raffenetti 2 integral format.
 Two-electron integral symmetry is turned on.
 One-electron integrals computed using PRISM.
 NBasis=   452 RedAO= T EigKep=  1.24D-06  NBF=   452
 NBsUse=   452 1.00D-06 EigRej= -1.00D+00 NBFU=   452
 ExpMin= 4.38D-02 ExpMax= 7.00D+03 ExpMxC= 1.05D+03 IAcc=3 IRadAn=         5 AccDes= 0.00D+00
 Harris functional with IExCor= 1009 and IRadAn=       5 diagonalized for initial guess.
 HarFok:  IExCor= 1009 AccDes= 0.00D+00 IRadAn=         5 IDoV= 1 UseB2=F ITyADJ=14
 ICtDFT=  3500011 ScaDFX=  1.000000  1.000000  1.000000  1.000000
 FoFCou: FMM=F IPFlag=           0 FMFlag=      100000 FMFlg1=           0
         NFxFlg=           0 DoJE=T BraDBF=F KetDBF=T FulRan=T
         wScrn=  0.000000 ICntrl=     500 IOpCl=  0 I1Cent=   200000004 NGrid=           0
         NMat0=    1 NMatS0=      1 NMatT0=    0 NMatD0=    1 NMtDS0=    0 NMtDT0=    0
 Petite list used in FoFCou.
 Requested convergence on RMS density matrix=1.00D-08 within 128 cycles.
 Requested convergence on MAX density matrix=1.00D-06.
 Requested convergence on             energy=1.00D-06.
 No special actions if energy rises.
 SCF Done:  E(RM062X) =  -1145.38381899     A.U. after   17 cycles
            NFock= 17  Conv=0.84D-08     -V/T= 2.0089

 **********************************************************************

            Population analysis using the SCF density.

 **********************************************************************

 Orbital symmetries:
       Occupied  (A) (A) (A) (A) (A) (A) (A) (A) (A) (A) (A) (A)
                 (A) (A) (A) (A) (A) (A) (A) (A) (A) (A) (A) (A)
                 (A) (A) (A) (A) (A) (A) (A) (A) (A) (A) (A) (A)
                 (A) (A) (A) (A) (A) (A) (A) (A) (A) (A) (A) (A)
                 (A) (A) (A) (A) (A) (A) (A) (A) (A) (A) (A) (A)
                 (A) (A) (A) (A) (A) (A) (A) (A) (A) (A) (A) (A)
                 (A) (A) (A) (A) (A) (A) (A) (A) (A) (A) (A)
       Virtual   (A) (A) (A) (A) (A) (A) (A) (A) (A) (A) (A) (A)
                 (A) (A) (A) (A) (A) (A) (A) (A) (A) (A) (A) (A)
                 (A) (A) (A) (A) (A) (A) (A) (A) (A) (A) (A) (A)
                 (A) (A) (A) (A) (A) (A) (A) (A) (A) (A) (A) (A)
                 (A) (A) (A) (A) (A) (A) (A) (A) (A) (A) (A) (A)
                 (A) (A) (A) (A) (A) (A) (A) (A) (A) (A) (A) (A)
                 (A) (A) (A) (A) (A) (A) (A) (A) (A) (A) (A) (A)
                 (A) (A) (A) (A) (A) (A) (A) (A) (A) (A) (A) (A)
                 (A) (A) (A) (A) (A) (A) (A) (A) (A) (A) (A) (A)
                 (A) (A) (A) (A) (A) (A) (A) (A) (A) (A) (A) (A)
                 (A) (A) (A) (A) (A) (A) (A) (A) (A) (A) (A) (A)
                 (A) (A) (A) (A) (A) (A) (A) (A) (A) (A) (A) (A)
                 (A) (A) (A) (A) (A) (A) (A) (A) (A) (A) (A) (A)
                 (A) (A) (A) (A) (A) (A) (A) (A) (A) (A) (A) (A)
                 (A) (A) (A) (A) (A) (A) (A) (A) (A) (A) (A) (A)
                 (A) (A) (A) (A) (A) (A) (A) (A) (A) (A) (A) (A)
                 (A) (A) (A) (A) (A) (A) (A) (A) (A) (A) (A) (A)
                 (A) (A) (A) (A) (A) (A) (A) (A) (A) (A) (A) (A)
                 (A) (A) (A) (A) (A) (A) (A) (A) (A) (A) (A) (A)
                 (A) (A) (A) (A) (A) (A) (A) (A) (A) (A) (A) (A)
                 (A) (A) (A) (A) (A) (A) (A) (A) (A) (A) (A) (A)
                 (A) (A) (A) (A) (A) (A) (A) (A) (A) (A) (A) (A)
                 (A) (A) (A) (A) (A) (A) (A) (A) (A) (A) (A) (A)
                 (A) (A) (A) (A) (A) (A) (A) (A) (A) (A) (A) (A)
                 (A) (A) (A) (A) (A) (A) (A) (A) (A) (A) (A) (A)
                 (A) (A) (A) (A) (A) (A) (A) (A) (A) (A) (A) (A)
                 (A) (A) (A) (A) (A) (A) (A) (A) (A) (A) (A) (A)
                 (A) (A) (A) (A) (A) (A) (A) (A) (A) (A) (A) (A)
                 (A) (A) (A) (A) (A) (A) (A) (A) (A) (A) (A) (A)
                 (A) (A) (A) (A) (A) (A) (A) (A) (A) (A) (A) (A)
                 (A) (A) (A) (A) (A) (A) (A) (A) (A)
 The electronic state is 1-A.
 Alpha  occ. eigenvalues --  -25.21345 -19.56428 -19.56263 -19.47843 -19.45650
 Alpha  occ. eigenvalues --  -19.43914 -14.90619 -14.68840 -14.66010 -10.57740
 Alpha  occ. eigenvalues --  -10.55697 -10.55096 -10.52949 -10.50306 -10.50170
 Alpha  occ. eigenvalues --  -10.49063 -10.49003 -10.47544 -10.45825 -10.45172
 Alpha  occ. eigenvalues --  -10.43065 -10.42707  -1.30286  -1.28839  -1.08043
 Alpha  occ. eigenvalues --   -1.05103  -1.01118  -0.93355  -0.89772  -0.88204
 Alpha  occ. eigenvalues --   -0.87860  -0.82623  -0.78548  -0.77017  -0.74570
 Alpha  occ. eigenvalues --   -0.70996  -0.67438  -0.63646  -0.60587  -0.60316
 Alpha  occ. eigenvalues --   -0.58186  -0.56188  -0.54621  -0.53671  -0.52253
 Alpha  occ. eigenvalues --   -0.51521  -0.49647  -0.48931  -0.48564  -0.46794
 Alpha  occ. eigenvalues --   -0.45249  -0.45067  -0.43910  -0.42323  -0.41919
 Alpha  occ. eigenvalues --   -0.41586  -0.41058  -0.39863  -0.38765  -0.38375
 Alpha  occ. eigenvalues --   -0.36956  -0.35821  -0.34930  -0.34854  -0.34811
 Alpha  occ. eigenvalues --   -0.32626  -0.32365  -0.31767  -0.30262  -0.29988
 Alpha  occ. eigenvalues --   -0.29276  -0.29137  -0.27768  -0.27666  -0.25940
 Alpha  occ. eigenvalues --   -0.25242  -0.23907  -0.21833  -0.19594  -0.18181
 Alpha  occ. eigenvalues --   -0.17931  -0.16489  -0.15677
 Alpha virt. eigenvalues --    0.05198   0.08770   0.09293   0.10460   0.10650
 Alpha virt. eigenvalues --    0.11754   0.12260   0.12692   0.13179   0.13497
 Alpha virt. eigenvalues --    0.13774   0.13962   0.14114   0.14376   0.15143
 Alpha virt. eigenvalues --    0.15829   0.16182   0.16675   0.16828   0.17245
 Alpha virt. eigenvalues --    0.17440   0.18016   0.18718   0.18901   0.19074
 Alpha virt. eigenvalues --    0.19702   0.19889   0.20086   0.20933   0.21541
 Alpha virt. eigenvalues --    0.21642   0.21906   0.22132   0.22717   0.23117
 Alpha virt. eigenvalues --    0.23429   0.23765   0.24063   0.24440   0.24887
 Alpha virt. eigenvalues --    0.25180   0.25467   0.26354   0.26579   0.27060
 Alpha virt. eigenvalues --    0.27475   0.28026   0.28401   0.29261   0.29372
 Alpha virt. eigenvalues --    0.29669   0.30307   0.30668   0.30916   0.31135
 Alpha virt. eigenvalues --    0.31288   0.31938   0.32074   0.32701   0.33141
 Alpha virt. eigenvalues --    0.33227   0.33799   0.34150   0.34301   0.34828
 Alpha virt. eigenvalues --    0.35038   0.35451   0.35629   0.36430   0.36694
 Alpha virt. eigenvalues --    0.36975   0.37553   0.37800   0.38493   0.38889
 Alpha virt. eigenvalues --    0.39062   0.39602   0.39805   0.40127   0.40518
 Alpha virt. eigenvalues --    0.40910   0.41506   0.41912   0.42014   0.42593
 Alpha virt. eigenvalues --    0.42938   0.43263   0.43393   0.43606   0.43962
 Alpha virt. eigenvalues --    0.44544   0.45130   0.45522   0.46015   0.46155
 Alpha virt. eigenvalues --    0.46568   0.46929   0.47056   0.47627   0.48103
 Alpha virt. eigenvalues --    0.48804   0.49299   0.49799   0.50019   0.50452
 Alpha virt. eigenvalues --    0.50850   0.51843   0.52026   0.52849   0.53273
 Alpha virt. eigenvalues --    0.53804   0.54244   0.54893   0.55682   0.56279
 Alpha virt. eigenvalues --    0.56693   0.57598   0.58432   0.59859   0.60274
 Alpha virt. eigenvalues --    0.62036   0.62451   0.62574   0.64267   0.64390
 Alpha virt. eigenvalues --    0.67089   0.67270   0.68210   0.70625   0.72451
 Alpha virt. eigenvalues --    0.75025   0.76284   0.79213   0.79812   0.81682
 Alpha virt. eigenvalues --    0.81772   0.81976   0.82686   0.83137   0.84549
 Alpha virt. eigenvalues --    0.85218   0.86497   0.87272   0.88549   0.88988
 Alpha virt. eigenvalues --    0.89501   0.90376   0.90613   0.91067   0.92164
 Alpha virt. eigenvalues --    0.92685   0.93191   0.95017   0.97516   0.97709
 Alpha virt. eigenvalues --    0.98519   0.99078   1.00329   1.01285   1.02511
 Alpha virt. eigenvalues --    1.03986   1.04132   1.06093   1.06484   1.07900
 Alpha virt. eigenvalues --    1.08731   1.09775   1.10419   1.10575   1.11336
 Alpha virt. eigenvalues --    1.12261   1.13321   1.14674   1.14752   1.17481
 Alpha virt. eigenvalues --    1.17878   1.18265   1.18524   1.19728   1.20428
 Alpha virt. eigenvalues --    1.22253   1.22618   1.23473   1.24131   1.24639
 Alpha virt. eigenvalues --    1.25416   1.26299   1.27270   1.27670   1.28661
 Alpha virt. eigenvalues --    1.29620   1.29699   1.31813   1.32701   1.34343
 Alpha virt. eigenvalues --    1.35610   1.36222   1.37168   1.37802   1.37968
 Alpha virt. eigenvalues --    1.39014   1.39689   1.41849   1.44098   1.45319
 Alpha virt. eigenvalues --    1.46267   1.46673   1.47343   1.48203   1.49309
 Alpha virt. eigenvalues --    1.50635   1.51119   1.52639   1.53330   1.53503
 Alpha virt. eigenvalues --    1.54853   1.56141   1.56580   1.57636   1.58071
 Alpha virt. eigenvalues --    1.58648   1.59086   1.59594   1.60029   1.61056
 Alpha virt. eigenvalues --    1.61821   1.63977   1.66334   1.67204   1.68564
 Alpha virt. eigenvalues --    1.68989   1.70181   1.71488   1.72315   1.73515
 Alpha virt. eigenvalues --    1.75932   1.78868   1.79304   1.80048   1.80813
 Alpha virt. eigenvalues --    1.82957   1.84962   1.86391   1.87048   1.87555
 Alpha virt. eigenvalues --    1.88488   1.90132   1.91816   1.93355   1.95177
 Alpha virt. eigenvalues --    1.96166   1.97197   1.97594   1.98499   1.99034
 Alpha virt. eigenvalues --    1.99371   2.00839   2.02376   2.02862   2.03617
 Alpha virt. eigenvalues --    2.04580   2.05888   2.06496   2.07147   2.07471
 Alpha virt. eigenvalues --    2.08306   2.08928   2.10263   2.10355   2.10962
 Alpha virt. eigenvalues --    2.12152   2.13602   2.14760   2.14972   2.15688
 Alpha virt. eigenvalues --    2.16122   2.18124   2.18605   2.19126   2.19604
 Alpha virt. eigenvalues --    2.20498   2.22868   2.23599   2.24145   2.24633
 Alpha virt. eigenvalues --    2.27111   2.27440   2.28676   2.30136   2.30289
 Alpha virt. eigenvalues --    2.31614   2.33320   2.36049   2.36448   2.37950
 Alpha virt. eigenvalues --    2.39474   2.40696   2.41269   2.43426   2.44519
 Alpha virt. eigenvalues --    2.45034   2.45638   2.46327   2.47680   2.48391
 Alpha virt. eigenvalues --    2.49592   2.50213   2.51821   2.53737   2.60793
 Alpha virt. eigenvalues --    2.63112   2.63739   2.66306   2.68572   2.69136
 Alpha virt. eigenvalues --    2.70275   2.70813   2.75303   2.75727   2.76492
 Alpha virt. eigenvalues --    2.78443   2.81087   2.82440   2.85313   2.86450
 Alpha virt. eigenvalues --    2.86473   2.88951   2.89678   2.90223   2.93355
 Alpha virt. eigenvalues --    2.96938   2.99310   3.02464   3.08578   3.16752
 Alpha virt. eigenvalues --    3.17073   3.17927   3.21469   3.26682   3.28173
 Alpha virt. eigenvalues --    3.31041   3.32460   3.34644   3.36188   3.41766
 Alpha virt. eigenvalues --    3.45654   3.55054   4.26600   4.34320   4.34932
 Alpha virt. eigenvalues --    4.36327   4.41424   4.43766   4.44615   4.45729
 Alpha virt. eigenvalues --    4.51864   4.56364   4.57901   4.59718   4.62265
 Alpha virt. eigenvalues --    4.63272   4.66942   4.69767   4.75836   4.83629
 Alpha virt. eigenvalues --    4.88967   4.96682   5.02080   6.17174
          Condensed to atoms (all electrons):
               1          2          3          4          5          6
     1  C    5.829610  -0.164394  -0.046401   0.000194  -0.034341   0.000242
     2  C   -0.164394   6.385499  -0.435771  -0.072932   0.066050   0.020836
     3  C   -0.046401  -0.435771   6.993168   0.462148  -0.853923  -0.053366
     4  N    0.000194  -0.072932   0.462148   7.740776   0.229314  -0.136840
     5  C   -0.034341   0.066050  -0.853923   0.229314   6.708042   0.676558
     6  O    0.000242   0.020836  -0.053366  -0.136840   0.676558   8.406426
     7  N   -0.000611  -0.001672  -0.165453  -0.341249   0.245182  -0.178809
     8  C   -0.001317   0.041446  -0.385376  -0.214356  -1.095840  -0.434881
     9  C   -0.003995  -0.034853  -0.234265  -0.157646  -1.325351   0.347720
    10  C    0.000589   0.011063   0.120308   0.086219   0.217372  -0.112715
    11  C    0.000052  -0.001181   0.017168   0.008833   0.144180  -0.019330
    12  C   -0.000062  -0.000197  -0.009932  -0.006698  -0.027190   0.048455
    13  C    0.000090  -0.005088   0.051811   0.033421   0.620443   0.125226
    14  H    0.453432  -0.136807   0.033347   0.000371  -0.000454   0.000006
    15  H    0.418583  -0.061084  -0.012308  -0.000078  -0.000932  -0.000035
    16  H   -0.035918   0.425177  -0.076326   0.003688  -0.000298  -0.000127
    17  H   -0.040679   0.428135  -0.068112   0.003738  -0.010319  -0.000179
    18  H   -0.015044  -0.071202   0.420326  -0.067113   0.032890  -0.000934
    19  H   -0.008773  -0.038268   0.457647  -0.049497  -0.060939   0.001597
    20  H   -0.000719  -0.006309  -0.070095   0.178341   0.031496   0.003735
    21  H    0.000001   0.000007   0.000259  -0.000291   0.007801  -0.000209
    22  F    0.000000  -0.000001   0.000060   0.000008   0.002599   0.000008
    23  N    0.000777   0.002139   0.013207   0.039601  -0.102065  -0.026823
    24  H   -0.000000   0.000000  -0.000005  -0.000001  -0.000382   0.000004
    25  O    0.000015   0.000215  -0.002774  -0.002951   0.015143  -0.005040
    26  O   -0.000109   0.002903  -0.037181  -0.028817   0.113262  -0.072282
    27  H    0.419032  -0.066308  -0.010548   0.000049   0.001373  -0.000037
    28  H    0.000088  -0.000695   0.007493   0.026153  -0.019372   0.003991
    29  H   -0.000000   0.000002  -0.000007  -0.000019   0.001116  -0.000040
    30  O   -0.000474  -0.003531   0.003114   0.005297  -0.039991  -0.000412
    31  O    0.006601   0.016079  -0.027961  -0.023484   0.012121  -0.000010
    32  C   -0.002921  -0.000697   0.006117  -0.003091   0.005441  -0.000163
    33  C    0.000673  -0.008009   0.013159  -0.011048  -0.032901  -0.000660
    34  C   -0.000182   0.000415  -0.002365   0.002048   0.001130   0.000076
    35  H    0.000016   0.000074   0.000025  -0.000030  -0.000076  -0.000000
    36  H    0.000012   0.000056   0.000030  -0.000034  -0.000076  -0.000000
    37  H    0.000001   0.000012   0.000000  -0.000001   0.000025  -0.000000
    38  H   -0.000000   0.000001  -0.000004  -0.000002   0.000018   0.000000
    39  H    0.000001   0.000012  -0.000001   0.000004   0.000018  -0.000000
               7          8          9         10         11         12
     1  C   -0.000611  -0.001317  -0.003995   0.000589   0.000052  -0.000062
     2  C   -0.001672   0.041446  -0.034853   0.011063  -0.001181  -0.000197
     3  C   -0.165453  -0.385376  -0.234265   0.120308   0.017168  -0.009932
     4  N   -0.341249  -0.214356  -0.157646   0.086219   0.008833  -0.006698
     5  C    0.245182  -1.095840  -1.325351   0.217372   0.144180  -0.027190
     6  O   -0.178809  -0.434881   0.347720  -0.112715  -0.019330   0.048455
     7  N    7.838407  -0.447751   0.421952   0.066640   0.015324  -0.001972
     8  C   -0.447751  29.725650 -13.555555  -5.429744   0.255551  -2.561172
     9  C    0.421952 -13.555555  31.739233  -2.044730  -1.868295   1.415144
    10  C    0.066640  -5.429744  -2.044730  17.129453  -0.520978   0.333235
    11  C    0.015324   0.255551  -1.868295  -0.520978   6.547091  -0.105456
    12  C   -0.001972  -2.561172   1.415144   0.333235  -0.105456  10.108589
    13  C    0.017591  -1.067302  -6.782022  -4.047128   0.974651  -3.409409
    14  H    0.000014  -0.000013   0.000002  -0.000000  -0.000000  -0.000000
    15  H    0.000010   0.000182  -0.000157   0.000023   0.000000  -0.000000
    16  H   -0.000067  -0.000986   0.000657  -0.000310  -0.000003  -0.000001
    17  H   -0.000531   0.000501  -0.000994   0.000641   0.000011   0.000002
    18  H    0.003850  -0.009767   0.010239  -0.003683   0.000018   0.000025
    19  H   -0.002583   0.016900  -0.015363   0.002830   0.000001  -0.000062
    20  H    0.033616   0.021891   0.008203  -0.008406   0.000072  -0.000035
    21  H   -0.002860   0.060391  -0.004452   0.287843  -0.045222   0.018594
    22  F   -0.000271  -0.057512  -0.050168  -0.130476   0.332157  -0.132448
    23  N   -0.067701   0.589156  -1.262158   0.428942  -0.037728   0.047020
    24  H    0.000212  -0.024143   0.017988   0.030862  -0.016579   0.307737
    25  O   -0.018965   0.514887  -0.525845  -0.059851   0.007896   0.216200
    26  O    0.007790  -0.059786  -0.283750  -0.043290   0.030159  -0.073666
    27  H    0.000013  -0.000072   0.000068  -0.000024  -0.000000  -0.000000
    28  H    0.149489   0.048378   0.016768  -0.074923   0.004812  -0.001189
    29  H   -0.001237   0.124290   0.137445  -0.024892  -0.011049  -0.114262
    30  O   -0.037559   0.085825   0.022057  -0.044923  -0.001115  -0.000266
    31  O    0.011639   0.008106   0.003346  -0.009760  -0.001028   0.000003
    32  C    0.001510  -0.039051   0.011316  -0.003981  -0.007053   0.000355
    33  C   -0.024207   0.010318   0.009472  -0.009431   0.002153   0.000257
    34  C    0.002870  -0.003450   0.002924   0.001724  -0.001157   0.000256
    35  H   -0.000017  -0.000094  -0.000113   0.000171  -0.000003   0.000001
    36  H    0.000021   0.000054   0.000060  -0.000175  -0.000002  -0.000001
    37  H   -0.000027   0.000048   0.000069  -0.000265   0.000026  -0.000005
    38  H    0.000011   0.000037   0.000002  -0.000037  -0.000006  -0.000000
    39  H   -0.000045  -0.000676   0.000006   0.000530  -0.000005   0.000015
              13         14         15         16         17         18
     1  C    0.000090   0.453432   0.418583  -0.035918  -0.040679  -0.015044
     2  C   -0.005088  -0.136807  -0.061084   0.425177   0.428135  -0.071202
     3  C    0.051811   0.033347  -0.012308  -0.076326  -0.068112   0.420326
     4  N    0.033421   0.000371  -0.000078   0.003688   0.003738  -0.067113
     5  C    0.620443  -0.000454  -0.000932  -0.000298  -0.010319   0.032890
     6  O    0.125226   0.000006  -0.000035  -0.000127  -0.000179  -0.000934
     7  N    0.017591   0.000014   0.000010  -0.000067  -0.000531   0.003850
     8  C   -1.067302  -0.000013   0.000182  -0.000986   0.000501  -0.009767
     9  C   -6.782022   0.000002  -0.000157   0.000657  -0.000994   0.010239
    10  C   -4.047128  -0.000000   0.000023  -0.000310   0.000641  -0.003683
    11  C    0.974651  -0.000000   0.000000  -0.000003   0.000011   0.000018
    12  C   -3.409409  -0.000000  -0.000000  -0.000001   0.000002   0.000025
    13  C   19.449906   0.000000  -0.000009   0.000048  -0.000052   0.001102
    14  H    0.000000   0.513658  -0.026183  -0.003367  -0.003324  -0.000069
    15  H   -0.000009  -0.026183   0.509762  -0.004566   0.003999  -0.000414
    16  H    0.000048  -0.003367  -0.004566   0.483241  -0.027565   0.004032
    17  H   -0.000052  -0.003324   0.003999  -0.027565   0.496220  -0.005596
    18  H    0.001102  -0.000069  -0.000414   0.004032  -0.005596   0.537850
    19  H   -0.001637  -0.000064   0.003031  -0.005359   0.004045  -0.043126
    20  H    0.000709  -0.000000  -0.000001   0.000639   0.000574   0.001827
    21  H   -0.016369  -0.000000  -0.000000  -0.000000  -0.000000  -0.000000
    22  F    0.007051   0.000000   0.000000  -0.000000   0.000000  -0.000000
    23  N   -0.250839   0.000000   0.000014  -0.000011   0.000019  -0.000451
    24  H   -0.005034  -0.000000  -0.000000  -0.000000  -0.000000  -0.000000
    25  O   -0.272304   0.000000  -0.000000   0.000000  -0.000000   0.000014
    26  O    0.404526   0.000000   0.000004  -0.000031   0.000010  -0.000377
    27  H    0.000004  -0.026693  -0.030282   0.003928  -0.004724   0.003009
    28  H    0.008478  -0.000000   0.000000   0.000002   0.000003   0.000006
    29  H    0.218785  -0.000000   0.000000  -0.000000  -0.000000  -0.000000
    30  O    0.000236  -0.000000   0.000000  -0.000004   0.000004  -0.000002
    31  O    0.000622  -0.000022  -0.000005  -0.001392  -0.001343  -0.000037
    32  C    0.000302  -0.000072   0.000009  -0.000323   0.000313   0.000239
    33  C   -0.000661   0.000031  -0.000002  -0.000090   0.000089   0.000012
    34  C   -0.000556  -0.000000   0.000000  -0.000010  -0.000010   0.000002
    35  H   -0.000005  -0.000000   0.000000  -0.000000  -0.000000  -0.000000
    36  H    0.000003  -0.000000   0.000000  -0.000000  -0.000000  -0.000000
    37  H    0.000010  -0.000000  -0.000000  -0.000000  -0.000000  -0.000000
    38  H    0.000000   0.000000  -0.000000  -0.000000  -0.000000  -0.000000
    39  H   -0.000012   0.000000  -0.000000  -0.000000  -0.000000   0.000000
              19         20         21         22         23         24
     1  C   -0.008773  -0.000719   0.000001   0.000000   0.000777  -0.000000
     2  C   -0.038268  -0.006309   0.000007  -0.000001   0.002139   0.000000
     3  C    0.457647  -0.070095   0.000259   0.000060   0.013207  -0.000005
     4  N   -0.049497   0.178341  -0.000291   0.000008   0.039601  -0.000001
     5  C   -0.060939   0.031496   0.007801   0.002599  -0.102065  -0.000382
     6  O    0.001597   0.003735  -0.000209   0.000008  -0.026823   0.000004
     7  N   -0.002583   0.033616  -0.002860  -0.000271  -0.067701   0.000212
     8  C    0.016900   0.021891   0.060391  -0.057512   0.589156  -0.024143
     9  C   -0.015363   0.008203  -0.004452  -0.050168  -1.262158   0.017988
    10  C    0.002830  -0.008406   0.287843  -0.130476   0.428942   0.030862
    11  C    0.000001   0.000072  -0.045222   0.332157  -0.037728  -0.016579
    12  C   -0.000062  -0.000035   0.018594  -0.132448   0.047020   0.307737
    13  C   -0.001637   0.000709  -0.016369   0.007051  -0.250839  -0.005034
    14  H   -0.000064  -0.000000  -0.000000   0.000000   0.000000  -0.000000
    15  H    0.003031  -0.000001  -0.000000   0.000000   0.000014  -0.000000
    16  H   -0.005359   0.000639  -0.000000  -0.000000  -0.000011  -0.000000
    17  H    0.004045   0.000574  -0.000000   0.000000   0.000019  -0.000000
    18  H   -0.043126   0.001827  -0.000000  -0.000000  -0.000451  -0.000000
    19  H    0.519084   0.001607   0.000000   0.000000   0.002246   0.000000
    20  H    0.001607   0.256249   0.000002   0.000000  -0.000718   0.000000
    21  H    0.000000   0.000002   0.446679  -0.003416   0.000479  -0.000136
    22  F    0.000000   0.000000  -0.003416   9.374154   0.000194  -0.003029
    23  N    0.002246  -0.000718   0.000479   0.000194   7.519617  -0.000106
    24  H    0.000000   0.000000  -0.000136  -0.003029  -0.000106   0.483910
    25  O   -0.000086   0.000008   0.000047  -0.000009   0.317815  -0.000115
    26  O    0.001376   0.000472  -0.000002  -0.000000   0.192057   0.000047
    27  H   -0.000300  -0.000000   0.000000  -0.000000  -0.000003   0.000000
    28  H    0.000001   0.004470   0.000907   0.000003   0.002553  -0.000000
    29  H   -0.000000  -0.000000   0.000009  -0.000382  -0.037950  -0.003954
    30  O   -0.000004   0.002140  -0.000289  -0.000007  -0.001669   0.000000
    31  O   -0.000069   0.042071  -0.000002   0.000000  -0.000082   0.000000
    32  C    0.000398  -0.004589   0.000320  -0.000011   0.003031  -0.000000
    33  C    0.000019   0.005469   0.000262  -0.000011   0.001291  -0.000000
    34  C   -0.000001  -0.000938  -0.000043   0.000004  -0.000087   0.000000
    35  H   -0.000000  -0.000003   0.000000   0.000000   0.000001   0.000000
    36  H   -0.000000  -0.000004   0.000000   0.000000  -0.000000  -0.000000
    37  H    0.000000   0.000000   0.000000  -0.000000   0.000000  -0.000000
    38  H   -0.000000   0.000000  -0.000000  -0.000000  -0.000000  -0.000000
    39  H    0.000000   0.000000   0.000000  -0.000000   0.000000  -0.000000
              25         26         27         28         29         30
     1  C    0.000015  -0.000109   0.419032   0.000088  -0.000000  -0.000474
     2  C    0.000215   0.002903  -0.066308  -0.000695   0.000002  -0.003531
     3  C   -0.002774  -0.037181  -0.010548   0.007493  -0.000007   0.003114
     4  N   -0.002951  -0.028817   0.000049   0.026153  -0.000019   0.005297
     5  C    0.015143   0.113262   0.001373  -0.019372   0.001116  -0.039991
     6  O   -0.005040  -0.072282  -0.000037   0.003991  -0.000040  -0.000412
     7  N   -0.018965   0.007790   0.000013   0.149489  -0.001237  -0.037559
     8  C    0.514887  -0.059786  -0.000072   0.048378   0.124290   0.085825
     9  C   -0.525845  -0.283750   0.000068   0.016768   0.137445   0.022057
    10  C   -0.059851  -0.043290  -0.000024  -0.074923  -0.024892  -0.044923
    11  C    0.007896   0.030159  -0.000000   0.004812  -0.011049  -0.001115
    12  C    0.216200  -0.073666  -0.000000  -0.001189  -0.114262  -0.000266
    13  C   -0.272304   0.404526   0.000004   0.008478   0.218785   0.000236
    14  H    0.000000   0.000000  -0.026693  -0.000000  -0.000000  -0.000000
    15  H   -0.000000   0.000004  -0.030282   0.000000   0.000000   0.000000
    16  H    0.000000  -0.000031   0.003928   0.000002  -0.000000  -0.000004
    17  H   -0.000000   0.000010  -0.004724   0.000003  -0.000000   0.000004
    18  H    0.000014  -0.000377   0.003009   0.000006  -0.000000  -0.000002
    19  H   -0.000086   0.001376  -0.000300   0.000001  -0.000000  -0.000004
    20  H    0.000008   0.000472  -0.000000   0.004470  -0.000000   0.002140
    21  H    0.000047  -0.000002   0.000000   0.000907   0.000009  -0.000289
    22  F   -0.000009  -0.000000  -0.000000   0.000003  -0.000382  -0.000007
    23  N    0.317815   0.192057  -0.000003   0.002553  -0.037950  -0.001669
    24  H   -0.000115   0.000047   0.000000  -0.000000  -0.003954   0.000000
    25  O    7.988924  -0.142924   0.000000   0.000064   0.020289  -0.000048
    26  O   -0.142924   7.956920  -0.000001  -0.001201  -0.002880   0.000022
    27  H    0.000000  -0.000001   0.514247  -0.000000  -0.000000   0.000000
    28  H    0.000064  -0.001201  -0.000000   0.243187   0.000000   0.060798
    29  H    0.020289  -0.002880  -0.000000   0.000000   0.446309   0.000000
    30  O   -0.000048   0.000022   0.000000   0.060798   0.000000   8.581570
    31  O    0.000001   0.000124  -0.000007  -0.001937  -0.000000  -0.188574
    32  C    0.000136  -0.001630  -0.000022  -0.006035   0.000001   0.365205
    33  C    0.000017  -0.000462  -0.000007   0.012569  -0.000000  -0.140811
    34  C   -0.000001   0.000011   0.000000  -0.001293  -0.000000   0.047055
    35  H    0.000000   0.000000  -0.000000  -0.000005   0.000000   0.000483
    36  H    0.000000   0.000000   0.000000  -0.000007  -0.000000   0.000562
    37  H    0.000000  -0.000000  -0.000000  -0.000002  -0.000000  -0.007018
    38  H   -0.000000  -0.000000  -0.000000  -0.000000   0.000000   0.002695
    39  H    0.000000   0.000000  -0.000000  -0.000001   0.000000  -0.007304
              31         32         33         34         35         36
     1  C    0.006601  -0.002921   0.000673  -0.000182   0.000016   0.000012
     2  C    0.016079  -0.000697  -0.008009   0.000415   0.000074   0.000056
     3  C   -0.027961   0.006117   0.013159  -0.002365   0.000025   0.000030
     4  N   -0.023484  -0.003091  -0.011048   0.002048  -0.000030  -0.000034
     5  C    0.012121   0.005441  -0.032901   0.001130  -0.000076  -0.000076
     6  O   -0.000010  -0.000163  -0.000660   0.000076  -0.000000  -0.000000
     7  N    0.011639   0.001510  -0.024207   0.002870  -0.000017   0.000021
     8  C    0.008106  -0.039051   0.010318  -0.003450  -0.000094   0.000054
     9  C    0.003346   0.011316   0.009472   0.002924  -0.000113   0.000060
    10  C   -0.009760  -0.003981  -0.009431   0.001724   0.000171  -0.000175
    11  C   -0.001028  -0.007053   0.002153  -0.001157  -0.000003  -0.000002
    12  C    0.000003   0.000355   0.000257   0.000256   0.000001  -0.000001
    13  C    0.000622   0.000302  -0.000661  -0.000556  -0.000005   0.000003
    14  H   -0.000022  -0.000072   0.000031  -0.000000  -0.000000  -0.000000
    15  H   -0.000005   0.000009  -0.000002   0.000000   0.000000   0.000000
    16  H   -0.001392  -0.000323  -0.000090  -0.000010  -0.000000  -0.000000
    17  H   -0.001343   0.000313   0.000089  -0.000010  -0.000000  -0.000000
    18  H   -0.000037   0.000239   0.000012   0.000002  -0.000000  -0.000000
    19  H   -0.000069   0.000398   0.000019  -0.000001  -0.000000  -0.000000
    20  H    0.042071  -0.004589   0.005469  -0.000938  -0.000003  -0.000004
    21  H   -0.000002   0.000320   0.000262  -0.000043   0.000000   0.000000
    22  F    0.000000  -0.000011  -0.000011   0.000004   0.000000   0.000000
    23  N   -0.000082   0.003031   0.001291  -0.000087   0.000001  -0.000000
    24  H    0.000000  -0.000000  -0.000000   0.000000   0.000000  -0.000000
    25  O    0.000001   0.000136   0.000017  -0.000001   0.000000   0.000000
    26  O    0.000124  -0.001630  -0.000462   0.000011   0.000000   0.000000
    27  H   -0.000007  -0.000022  -0.000007   0.000000  -0.000000   0.000000
    28  H   -0.001937  -0.006035   0.012569  -0.001293  -0.000005  -0.000007
    29  H   -0.000000   0.000001  -0.000000  -0.000000   0.000000  -0.000000
    30  O   -0.188574   0.365205  -0.140811   0.047055   0.000483   0.000562
    31  O    8.556736   0.510688  -0.340567   0.045171  -0.002574  -0.003529
    32  C    0.510688   5.611778  -0.910977  -0.031967  -0.057424  -0.064859
    33  C   -0.340567  -0.910977   7.420421  -0.207907   0.427088   0.438948
    34  C    0.045171  -0.031967  -0.207907   5.731466  -0.051656  -0.056430
    35  H   -0.002574  -0.057424   0.427088  -0.051656   0.505452  -0.026276
    36  H   -0.003529  -0.064859   0.438948  -0.056430  -0.026276   0.508317
    37  H   -0.000015  -0.018453  -0.030355   0.405980  -0.003921   0.003666
    38  H   -0.000218   0.050879  -0.113912   0.393545  -0.002323  -0.002392
    39  H    0.000090  -0.014578  -0.037806   0.409677   0.003643  -0.003996
              37         38         39
     1  C    0.000001  -0.000000   0.000001
     2  C    0.000012   0.000001   0.000012
     3  C    0.000000  -0.000004  -0.000001
     4  N   -0.000001  -0.000002   0.000004
     5  C    0.000025   0.000018   0.000018
     6  O   -0.000000   0.000000  -0.000000
     7  N   -0.000027   0.000011  -0.000045
     8  C    0.000048   0.000037  -0.000676
     9  C    0.000069   0.000002   0.000006
    10  C   -0.000265  -0.000037   0.000530
    11  C    0.000026  -0.000006  -0.000005
    12  C   -0.000005  -0.000000   0.000015
    13  C    0.000010   0.000000  -0.000012
    14  H   -0.000000   0.000000   0.000000
    15  H   -0.000000  -0.000000  -0.000000
    16  H   -0.000000  -0.000000  -0.000000
    17  H   -0.000000  -0.000000  -0.000000
    18  H   -0.000000  -0.000000   0.000000
    19  H    0.000000  -0.000000   0.000000
    20  H    0.000000   0.000000   0.000000
    21  H    0.000000  -0.000000   0.000000
    22  F   -0.000000  -0.000000  -0.000000
    23  N    0.000000  -0.000000   0.000000
    24  H   -0.000000  -0.000000  -0.000000
    25  O    0.000000  -0.000000   0.000000
    26  O   -0.000000  -0.000000   0.000000
    27  H   -0.000000  -0.000000  -0.000000
    28  H   -0.000002  -0.000000  -0.000001
    29  H   -0.000000   0.000000   0.000000
    30  O   -0.007018   0.002695  -0.007304
    31  O   -0.000015  -0.000218   0.000090
    32  C   -0.018453   0.050879  -0.014578
    33  C   -0.030355  -0.113912  -0.037806
    34  C    0.405980   0.393545   0.409677
    35  H   -0.003921  -0.002323   0.003643
    36  H    0.003666  -0.002392  -0.003996
    37  H    0.484854  -0.031016  -0.020695
    38  H   -0.031016   0.572548  -0.031628
    39  H   -0.020695  -0.031628   0.488919
 Mulliken charges:
               1
     1  C   -0.774067
     2  C   -0.291123
     3  C   -0.107213
     4  N   -0.704021
     5  C    0.472877
     6  O   -0.591988
     7  N   -0.522552
     8  C   -0.114770
     9  C   -0.014961
    10  C   -0.148724
    11  C    0.296037
    12  C   -0.051866
    13  C   -0.056587
    14  H    0.196208
    15  H    0.200438
    16  H    0.235341
    17  H    0.225125
    18  H    0.202376
    19  H    0.215350
    20  H    0.498224
    21  H    0.249687
    22  F   -0.338498
    23  N   -0.371766
    24  H    0.212725
    25  O   -0.050759
    26  O    0.038704
    27  H    0.197306
    28  H    0.516450
    29  H    0.248425
    30  O   -0.703060
    31  O   -0.610781
    32  C    0.599859
    33  C   -0.472422
    34  C   -0.686303
    35  H    0.207566
    36  H    0.206054
    37  H    0.217079
    38  H    0.161800
    39  H    0.213829
 Sum of Mulliken charges =  -1.00000
 Mulliken charges with hydrogens summed into heavy atoms:
               1
     1  C   -0.180115
     2  C    0.169343
     3  C    0.310513
     4  N   -0.205797
     5  C    0.472877
     6  O   -0.591988
     7  N   -0.006102
     8  C   -0.114770
     9  C   -0.014961
    10  C    0.100963
    11  C    0.296037
    12  C    0.160859
    13  C    0.191838
    22  F   -0.338498
    23  N   -0.371766
    25  O   -0.050759
    26  O    0.038704
    30  O   -0.703060
    31  O   -0.610781
    32  C    0.599859
    33  C   -0.058803
    34  C   -0.093595
 Electronic spatial extent (au):  <R**2>=           9365.8765
 Charge=             -1.0000 electrons
 Dipole moment (field-independent basis, Debye):
    X=              3.5685    Y=             -0.3313    Z=             -1.7889  Tot=              4.0055
 Quadrupole moment (field-independent basis, Debye-Ang):
   XX=           -157.5185   YY=           -171.9935   ZZ=           -141.0214
   XY=             16.5478   XZ=              0.6428   YZ=              2.6670
 Traceless Quadrupole moment (field-independent basis, Debye-Ang):
   XX=             -0.6740   YY=            -15.1490   ZZ=             15.8230
   XY=             16.5478   XZ=              0.6428   YZ=              2.6670
 Octapole moment (field-independent basis, Debye-Ang**2):
  XXX=            114.3644  YYY=            -20.0952  ZZZ=             -6.6745  XYY=             -4.4124
  XXY=            -24.0311  XXZ=              8.8104  XZZ=            -13.8761  YZZ=             13.7469
  YYZ=            -16.2659  XYZ=             26.8365
 Hexadecapole moment (field-independent basis, Debye-Ang**3):
 XXXX=          -7464.3548 YYYY=          -5130.6719 ZZZZ=           -756.7565 XXXY=             30.2666
 XXXZ=             42.3672 YYYX=            138.3249 YYYZ=            -81.4988 ZZZX=            -31.8589
 ZZZY=            -23.3435 XXYY=          -2249.4361 XXZZ=          -1403.4857 YYZZ=           -945.0302
 XXYZ=             40.6690 YYXZ=            -11.8739 ZZXY=             26.5237
 N-N= 1.807318344355D+03 E-N=-6.311049329096D+03  KE= 1.135292465545D+03
 Calling FoFJK, ICntrl=      2127 FMM=F ISym2X=0 I1Cent= 0 IOpClX= 0 NMat=1 NMatS=1 NMatT=0.
 ***** Axes restored to original set *****
 -------------------------------------------------------------------
 Center     Atomic                   Forces (Hartrees/Bohr)
 Number     Number              X              Y              Z
 -------------------------------------------------------------------
      1        6          -0.004971922    0.001260794    0.001899420
      2        6           0.003286467   -0.004665948   -0.004848063
      3        6           0.003018275    0.002330534    0.000481752
      4        7          -0.000719709   -0.067862245   -0.052205820
      5        6          -0.019174543    0.013311337    0.018408471
      6        8           0.004501478    0.006426596    0.025369130
      7        7           0.023786290   -0.063310010   -0.046160938
      8        6          -0.037900034    0.006991040    0.005540494
      9        6           0.026587461   -0.031020084    0.012702962
     10        6           0.004286304    0.001882053   -0.001399001
     11        6          -0.017855932    0.004366072   -0.003960259
     12        6           0.006205313    0.004539087    0.000042002
     13        6          -0.010617090   -0.006509628   -0.000510925
     14        1           0.006813892    0.006570980    0.004307705
     15        1          -0.000827853   -0.008865067    0.004768948
     16        1           0.003779774   -0.004578876    0.009518181
     17        1           0.001028056    0.008233446   -0.006683106
     18        1          -0.001032732    0.004309312   -0.008234888
     19        1           0.002180523   -0.007604280    0.006268628
     20        1           0.009450733    0.049390261    0.032670224
     21        1          -0.008400694   -0.003812448   -0.001216142
     22        9          -0.008705920    0.006835801   -0.000812260
     23        7          -0.009449103   -0.007383840   -0.029286350
     24        1           0.001828242    0.000082010    0.000025019
     25        8           0.045190401    0.056617363    0.026200116
     26        8          -0.034001340   -0.028970839   -0.025254453
     27        1          -0.003072299    0.002509764   -0.009103552
     28        1           0.015542275    0.042906728    0.024946644
     29        1          -0.005567488    0.002241889    0.000109715
     30        8          -0.057090590   -0.030133606   -0.015922557
     31        8          -0.040349988    0.010233019    0.017808812
     32        6           0.094022832    0.042359859    0.024571520
     33        6           0.005732065   -0.013397528   -0.012844597
     34        6           0.004587816   -0.005340717   -0.005870034
     35        1           0.002407212   -0.003050764    0.010080241
     36        1          -0.000439645    0.010382173   -0.004003573
     37        1          -0.002526529   -0.009106434    0.007884093
     38        1           0.003958509    0.005080626    0.003860739
     39        1          -0.005490509    0.006751568   -0.009148296
 -------------------------------------------------------------------
 Cartesian Forces:  Max     0.094022832 RMS     0.021740339

 GradGradGradGradGradGradGradGradGradGradGradGradGradGradGradGradGradGrad
 Berny optimization.
 FormGI is forming the generalized inverse of G from B-inverse, IUseBI=4.
 GSVD:  received Info=                   1 from GESDD.
 Internal  Forces:  Max     0.075049929 RMS     0.015034460
[...]
 .00000096,0.00006983,0.00068279,0.00058293,-0.00000399,-0.00000034,-0.
 00000181,-0.00229744,-0.00594216,0.00079371,0.00061876,-0.00109106,0.0
 0290859,-0.01560194,0.00851347,-0.02635531,0.03022315,-0.05434011,0.03
 967295,0.00917736,-0.00396416,0.01309616,-0.03535181,0.06121106,0.0000
 0222,0.00000279,0.00000187,0.00000363,-0.00000683,-0.00001819,-0.00008
 061,0.00003568,0.00003550,0.00011110,-0.00003552,-0.00001675,-0.000236
 19,0.00005997,0.00016044,0.00004842,-0.00007812,-0.00011580,-0.0000922
 4,-0.00042888,-0.00031868,0.00022419,0.00000720,-0.00000934,-0.0000225
 0,-0.00003941,-0.00000845,-0.00008487,0.00005487,0.00002515,0.00011333
 ,-0.00002899,-0.00000512,-0.00002995,-0.00002826,-0.00000822,-0.000013
 44,-0.00001290,-0.00000820,0.00002080,-0.00000232,-0.00000171,-0.00000
 002,0.00000115,0.00000083,0.00000029,-0.00001724,0.00000478,-0.0000249
 3,0.00001163,-0.00001399,0.00001411,0.00000306,-0.00000047,0.00000987,
 -0.00000862,-0.00000347,-0.00002629,0.00005628,0.00007961,0.00008089,0
 .00001448,0.00001569,-0.00004704,0.00003396,0.00000865,-0.00004064,0.0
 0010553,0.00001828,-0.00000537,-0.00000487,-0.00000322,0.00000441,-0.0
 0005654,-0.00002178,0.00002221,-0.00004541,0.00000684,-0.00000378,-0.0
 0000237,0.00000382,0.00008700,0.00070042,0.00042475,-0.00000517,-0.000
 00073,-0.00000165,-0.00040224,-0.00365492,-0.00021407,0.00212022,-0.00
 193141,0.00231727,-0.00976365,0.00770165,-0.01261236,-0.11898685,0.042
 76776,-0.21989365,0.00717611,-0.00264029,0.00967974,0.12984469,-0.0455
 0844,0.23562427,0.00000589,-0.00000068,0.00000712,-0.00000260,-0.00000
 298,-0.00000882,-0.00000386,-0.00000894,0.00002756,0.00012225,0.000037
 99,0.00003132,-0.00028513,-0.00000397,0.00012103,0.00006498,0.00000154
 ,-0.00005724,0.00006662,-0.00028649,-0.00017524,-0.00001028,-0.0000205
 1,-0.00000433,0.00000432,-0.00000387,0.00000116,0.00000549,0.00002235,
 -0.00001329,0.00000882,0.00002662,0.00001818,-0.00000050,-0.00001508,-
 0.00000830,-0.00001835,-0.00000622,-0.00000591,-0.00000217,0.00000080,
 -0.00000125,-0.00000211,0.00000272,0.00000091,-0.00000010,0.00000139,-
 0.00000275,0.00001561,0.00000122,0.00000307,0.00000559,0.00000040,-0.0
 0001779,-0.00000308,0.00000595,-0.00000318,-0.00005240,-0.00008297,-0.
 00012960,0.00002751,0.00001518,0.00004944,0.00000463,-0.00002497,-0.00
 002083,-0.00002498,0.00004027,0.00001628,-0.00000219,-0.00000317,0.000
 00192,0.00000560,-0.00002385,-0.00001442,0.00001501,-0.00001546,-0.000
 00442,0.00000097,0.00000051,-0.00000343,0.00000256,0.00042349,0.000128
 32,-0.00000215,-0.00000095,0.00000145,-0.00000256,-0.00178164,-0.00243
 546,0.00061241,0.00204514,-0.00028922,-0.00615383,-0.00429642,0.004971
 79,-0.12582229,-0.08492606,0.08905347,-0.01520358,-0.01631327,0.016782
 38,0.01052260,0.01155885,-0.01108953,0.13881892,0.00000739,0.00000118,
 0.00001280,0.00001035,-0.00003784,-0.00003143,-0.00009830,0.00001691,0
 .00010168,0.00012928,-0.00006730,-0.00001354,-0.00031881,0.00006059,0.
 00028867,0.00005262,-0.00007742,-0.00019355,-0.00007315,-0.00064275,-0
 .00035063,0.00027515,-0.00000171,-0.00000365,-0.00003244,-0.00003650,-
 0.00001796,-0.00011508,0.00007695,0.00002743,0.00014450,-0.00006867,-0
 .00001051,-0.00003983,-0.00002132,-0.00001271,-0.00000765,-0.00001495,
 -0.00000887,0.00001618,-0.00000560,-0.00000126,-0.00000034,0.00000905,
 -0.00000014,-0.00000544,0.00001701,0.00000117,-0.00001653,-0.00000954,
 0.00001968,0.00001364,0.00000710,-0.00004057,0.00000993,0.00000051,-0.
 00001429,-0.00003088,0.00017404,-0.00000245,0.00011004,0.00000344,0.00
 002172,-0.00006630,0.00006370,0.00001642,-0.00000988,0.00010033,0.0000
 5104,-0.00000688,-0.00000721,-0.00000181,-0.00000584,-0.00006331,-0.00
 003966,0.00000179,-0.00003729,-0.00001630,-0.00000024,-0.00000164,-0.0
 0001680,0.00009492,0.00105820,0.00030469,-0.00000593,-0.00000185,0.000
 00053,-0.00173228,-0.00329172,-0.00537520,0.00211993,0.00184207,-0.003
 75849,-0.01621002,-0.01495268,0.02259584,-0.08417000,-0.13820155,0.095
 13410,0.01065150,0.01061286,-0.01160910,-0.00324808,-0.00422357,0.0034
 8858,0.09081620,0.14763890,0.00000208,-0.00000416,0.00000110,0.0000004
 1,0.00001357,-0.00000165,0.00003300,-0.00000663,-0.00000394,-0.0000153
 2,0.00002762,0.00005542,-0.00000752,-0.00001347,0.00001791,-0.00000606
 ,0.00000795,-0.00000860,-0.00002183,-0.00016754,-0.00000110,0.00005620
 ,0.00000460,-0.00000496,-0.00001123,-0.00000084,-0.00000295,-0.0000279
 3,0.00001213,0.00001249,0.00001279,-0.00003834,-0.00001182,-0.00000842
 ,0.00000919,0.00000117,0.00000992,-0.00000013,0.00000131,-0.00000970,0
 .00000381,-0.00000108,-0.00000078,-0.00000252,-0.00000171,0.00000081,-
 0.00000143,-0.00000085,0.00000616,-0.00000031,0.00000624,-0.00000261,-
 0.00000182,-0.00000052,-0.00000614,0.00000333,0.00000005,-0.00001194,0
 .00000385,-0.00007632,0.00001978,-0.00001108,-0.00001520,-0.00001192,0
 .00002813,0.00001329,0.00000464,-0.00001940,-0.00001711,0.00000026,-0.
 00000017,-0.00000128,0.00000072,0.00001614,0.00001155,-0.00000219,0.00
 000391,0.00000862,0.00000228,0.00000057,0.00000255,-0.00000381,0.00028
 526,-0.00005302,-0.00000066,-0.00000005,-0.00000064,-0.00185336,-0.001
 06367,-0.00295130,-0.00067209,0.00109566,-0.00054145,-0.00785189,-0.01
 176029,0.01096980,0.08766018,0.09224030,-0.13881260,0.00412901,0.00432
 814,-0.00509191,0.01529127,0.01692342,-0.01687830,-0.09760887,-0.09969
 985,0.15214651,0.00000350,0.00000563,0.00000090,0.00000020,-0.00002746
 ,-0.00000483,-0.00000145,0.00000427,0.00000257,0.00004911,0.00007672,0
 .00003746,-0.00010049,-0.00001824,0.00000673,0.00003194,0.00001767,0.0
 0001748,0.00001728,0.00001662,-0.00002747,0.00000674,-0.00000784,0.000
 00734,-0.00000650,0.00001201,0.00000019,-0.00001155,-0.00000749,-0.000
 00417,0.00000751,-0.00003684,-0.00001330,0.00000151,0.00001109,0.00000
 057,0.00000722,0.00000309,0.00000261,0.00000020,-0.00000316,-0.0000004
 8,-0.00000143,0.00000614,0.00000424,-0.00000150,0.00000730,-0.00000082
 ,0.00000536,0.00000191,0.00000015,0.00000037,-0.00000177,-0.00000592,0
 .00000004,0.00000507,0.00000393,-0.00001777,-0.00009970,-0.00006313,0.
 00000978,-0.00001461,-0.00001748,-0.00000656,0.00003129,0.00001588,0.0
 0002002,-0.00002262,0.00001480,0.00000103,0.00000042,0.00000128,-0.000
 00511,0.00000873,-0.00000408,-0.00001159,0.00001296,-0.00001581,-0.000
 00003,-0.00000157,-0.00000392,0.00000424,-0.00002013,0.00001843,0.0000
 0014,0.00000028,0.00000144,0.00142997,0.00037294,-0.00053394,0.0006445
 3,0.00047321,-0.00011829,-0.00144830,-0.00165561,-0.00056789,-0.016412
 31,-0.01687851,0.01849285,-0.12724668,-0.08721886,0.08921813,0.0006492
 2,-0.00064246,-0.00068791,-0.00439041,0.00359349,0.00120288,0.14041081
 ,0.00000136,0.00000138,-0.00000165,-0.00000173,-0.00000626,0.00000232,
 0.00002702,-0.00000419,-0.00002093,0.00001057,0.00005626,0.00004180,0.
 00000030,-0.00003527,-0.00007359,0.00001341,0.00004482,0.00006417,0.00
 010390,0.00014775,0.00009897,-0.00015249,-0.00000863,-0.00000628,0.000
 01908,0.00001562,0.00000914,0.00007324,-0.00004479,-0.00000366,-0.0001
 2815,0.00009125,0.00002454,0.00002716,0.00000251,0.00000108,-0.0000043
 4,0.00000855,0.00000122,-0.00000510,-0.00000053,-0.00000048,-0.0000007
 5,0.00000274,0.00000279,0.00000097,-0.00000068,-0.00000141,0.00000786,
 0.00000351,-0.00000303,-0.00000289,-0.00000296,0.00000451,-0.00000342,
 0.00000485,0.00000540,-0.00000430,-0.00009454,-0.00006724,-0.00005229,
 0.00001026,-0.00002255,0.00006814,-0.00008365,-0.00003237,-0.00000993,
 -0.00003871,-0.00002234,0.00000442,0.00000443,0.00000384,0.00000804,0.
 00002693,0.00001621,0.00000954,0.00001364,0.00000739,0.00000031,-0.000
 00068,0.00000143,-0.00005377,-0.00027547,-0.00013668,0.00000200,0.0000
 0009,0.00000128,0.00011272,-0.00046565,-0.00004929,-0.00039787,0.00024
 735,0.00036906,0.00049988,0.00020433,-0.00085521,0.00929218,0.01059208
 ,-0.01062477,-0.08844267,-0.14176796,0.09823891,-0.00081093,0.00076892
 ,0.00028619,0.00317602,-0.00123155,-0.00168289,0.09369896,0.15210475,-
 0.00000393,-0.00000091,-0.00000628,0.00000007,0.00001248,0.00001332,0.
 00003917,-0.00000621,-0.00004095,-0.00013663,-0.00004487,-0.00000953,0
 .00026128,-0.00004101,-0.00013903,-0.00006304,0.00002589,0.00006758,-0
 .00010269,0.00012950,0.00014474,0.00008966,0.00001925,0.00000148,-0.00
 003073,0.00001125,-0.00000790,-0.00004015,-0.00003813,0.00005452,-0.00
 003039,-0.00006156,-0.00004278,-0.00000100,0.00003434,0.00001392,0.000
 03759,0.00001103,0.00000953,-0.00000742,0.00000136,0.00000067,0.000000
 89,-0.00000315,-0.00000039,0.00000210,-0.00000271,0.00000036,0.0000018
 3,-0.00000232,-0.00000430,-0.00000946,-0.00000295,0.00001876,-0.000001
 72,-0.00000127,0.00000374,0.00003628,0.00003204,0.00002192,-0.00002223
 ,-0.00006305,-0.00014897,0.00000112,0.00005332,0.00004216,0.00004588,-
 0.00008461,-0.00002935,0.00000518,0.00000609,-0.00000108,-0.00000788,0
 .00005382,0.00002805,-0.00002540,0.00003220,0.00000548,0.00000047,0.00
 000009,0.00000534,-0.00004868,-0.00022329,-0.00013407,0.00000187,0.000
 00143,-0.00000128,-0.00208545,-0.00023315,0.00079536,-0.00104909,-0.00
 036235,-0.00014727,0.00287563,0.00170811,0.00036364,0.00407759,0.00447
 724,-0.00548570,0.08884947,0.09616849,-0.14687859,-0.00018277,-0.00042
 337,0.00063484,0.00140144,-0.00133114,0.00073482,-0.09890998,-0.106094
 93,0.15524956,0.00000655,0.00000908,-0.00000032,-0.00000741,-0.0000230
 1,-0.00000438,0.00003082,0.00001734,-0.00002084,0.00018112,0.00021246,
 0.00017470,-0.00031526,0.00000023,0.00004833,0.00009626,0.00002759,0.0
 0003194,0.00012800,-0.00005510,-0.00006549,-0.00013094,-0.00002280,-0.
 00000969,0.00002704,0.00000629,0.00000911,0.00005051,0.00000859,-0.000
 01282,0.00000823,0.00003853,0.00001704,0.00000890,-0.00001611,-0.00000
 486,-0.00002599,-0.00000621,-0.00000470,-0.00000380,-0.00000009,-0.000
 00044,-0.00000368,0.00000248,0.00000488,0.00000127,-0.00000115,-0.0000
 0057,0.00001698,0.00000867,-0.00000828,-0.00000064,-0.00000388,0.00000
 404,-0.00000814,0.00000736,0.00001301,-0.00011025,-0.00032170,-0.00027
 058,0.00000132,0.00006410,0.00004629,0.00000120,-0.00003816,-0.0000164
 7,-0.00003587,0.00003089,0.00000428,-0.00000228,-0.00000334,-0.0000014
 3,0.00000891,-0.00001970,-0.00000759,0.00002122,-0.00001337,0.00000029
 ,-0.00000042,-0.00000146,0.00000304,0.00000472,0.00007980,0.00003703,-
 0.00000038,-0.00000042,0.00000079,0.00231262,-0.00063708,-0.00035404,-
 0.00025098,0.00294055,0.00166883,-0.00732544,-0.00170733,-0.00086918,0
 .00744123,0.02712003,0.01512310,-0.05970541,-0.04768590,-0.02661203,0.
 00108787,-0.00060271,-0.00075793,0.00102214,-0.00092491,-0.00011389,-0
 .00417590,-0.01367192,-0.01020446,0.06380292,-0.00001025,-0.00001506,0
 .00000769,0.00000756,0.00004726,-0.00000118,-0.00011082,-0.00000633,0.
 00008786,-0.00010983,-0.00029810,-0.00025067,0.00018656,0.00014113,0.0
 0020921,-0.00008845,-0.00015621,-0.00021853,-0.00026359,-0.00030656,-0
 .00020224,0.00033041,0.00002595,0.00001191,-0.00003011,-0.00006007,-0.
 00002545,-0.00013368,0.00007312,0.00001760,0.00020024,-0.00006430,-0.0
 0000494,-0.00005123,-0.00003176,-0.00001360,-0.00000436,-0.00001614,-0
 .00000932,0.00002036,0.00000268,0.00000316,0.00000614,-0.00001233,-0.0
 0001445,-0.00000311,-0.00000046,0.00000218,-0.00003760,-0.00001401,0.0
 0001804,0.00001134,0.00001568,-0.00002090,0.00001415,-0.00002162,-0.00
 002727,0.00006778,0.00052694,0.00041089,0.00009841,0.00002792,0.000063
 29,-0.00009660,0.00007896,0.00001504,0.00000767,0.00014304,0.00006966,
 -0.00000998,-0.00000836,-0.00000315,-0.00001758,-0.00009462,-0.0000537
 1,-0.00001375,-0.00005161,-0.00001794,-0.00000160,0.00000561,-0.000008
 42,0.00016293,0.00059913,0.00030319,-0.00000446,-0.00000205,-0.0000014
 7,0.00039864,-0.00078705,-0.00083946,0.00142459,-0.00241877,-0.0014231
 0,0.00172448,0.00221097,0.00090830,-0.00534915,-0.01249962,-0.00636958
 ,-0.04756634,-0.23922201,-0.10537560,0.00000440,-0.00007273,0.00059777
 ,0.00022227,0.00071386,-0.00020497,-0.00317884,-0.01584695,-0.00985296
 ,0.05127397,0.26031000,-0.00000515,-0.00000857,0.00000555,0.00000367,0
 .00002411,-0.00000071,-0.00006474,-0.00000347,0.00005098,-0.00005841,-
 0.00017326,-0.00013710,0.00010753,0.00008252,0.00010946,-0.00004883,-0
 .00008677,-0.00011822,-0.00014492,-0.00017998,-0.00009901,0.00017773,0
 .00001276,0.00000211,-0.00001485,-0.00003448,-0.00001690,-0.00006928,0
 .00003645,0.00003311,0.00010739,-0.00003051,-0.00000440,-0.00002886,-0
 .00001773,-0.00000947,-0.00000350,-0.00000996,-0.00000391,0.00001165,0
 .00000084,0.00000210,0.00000352,-0.00000617,-0.00000814,-0.00000118,0.
 00000136,0.00000077,-0.00002094,-0.00000867,0.00001144,0.00000525,0.00
 000925,-0.00001205,0.00000831,-0.00001227,-0.00001540,0.00003590,0.000
 29538,0.00022401,0.00006161,0.00005696,-0.00000915,-0.00005325,0.00003
 499,0.00001320,0.00000034,0.00008019,0.00003421,-0.00000565,-0.0000046
 7,-0.00000270,-0.00000843,-0.00005233,-0.00002825,-0.00000529,-0.00002
 950,-0.00000660,-0.00000141,0.00000330,-0.00000642,0.00009472,0.000344
 45,0.00015707,-0.00000249,-0.00000128,-0.00000082,0.00018774,-0.000831
 98,0.00028251,0.00078739,-0.00138320,-0.00078243,0.00104859,0.00097132
 ,0.00107369,-0.00303362,-0.00658494,-0.00472741,-0.02656719,-0.1054358
 1,-0.10970273,0.00021326,0.00030780,0.00050191,-0.00011182,0.00009630,
 -0.00031949,0.00308943,0.01736296,0.01116750,0.02863924,0.11894724,0.1
 1414119,0.00000300,0.00000713,-0.00000366,-0.00000298,-0.00001375,-0.0
 0000302,0.00000573,0.00001759,-0.00002600,0.00004108,0.00005113,0.0000
 7326,-0.00006677,-0.00000961,-0.00003930,0.00002603,0.00001650,0.00004
 298,0.00000855,0.00000268,0.00002025,0.00000572,0.00000497,-0.00000303
 ,-0.00000330,0.00000869,0.00000112,-0.00001481,-0.00001464,0.00001108,
 0.00000987,-0.00002969,-0.00001300,0.00000207,0.00000665,0.00000334,0.
 00000272,0.00000201,0.00000213,0.00000210,-0.00000128,-0.00000087,-0.0
 0000193,0.00000270,0.00000432,0.00000216,-0.00000830,0.00000224,0.0000
 0250,0.00000796,-0.00001287,-0.00000128,-0.00000444,0.00001402,0.,0.00
 000112,0.00000796,-0.00002500,-0.00009767,-0.00009787,0.00001531,-0.00
 000681,-0.00003130,-0.00000405,0.00002786,0.00001478,-0.00000568,-0.00
 001338,-0.00001592,0.00000135,0.00000109,-0.00000109,0.00000349,0.0000
 1268,0.00001134,0.00000592,0.00000157,0.00000734,-0.00000142,-0.000003
 08,0.00000603,0.00000033,0.00000005,-0.00001517,-0.00000035,0.00000090
 ,-0.00000043,0.00143809,-0.00020260,0.00058811,0.00063832,0.00014502,0
 .00047117,-0.00139924,-0.00139694,-0.00108020,-0.01658173,0.00687520,-
 0.02388461,-0.12958456,0.03081171,-0.12173237,-0.00442155,0.00290128,0
 .00251767,0.00065063,-0.00092812,-0.00018422,0.01053686,-0.00341453,0.
 01523558,-0.00415705,0.00091940,-0.00433348,0.14286988,-0.00000309,-0.
 00000051,-0.00000543,0.00000155,0.00000207,0.00001186,0.00004640,-0.00
 001508,-0.00003189,-0.00011056,0.00000899,-0.00001028,0.00020154,-0.00
 006123,-0.00011595,-0.00004639,0.00004445,0.00006658,-0.00002538,0.000
 20807,0.00013644,0.00000842,0.00000779,0.00001831,-0.00002128,0.000025
 83,-0.00000171,-0.00000573,-0.00003600,-0.00003491,-0.00008513,-0.0000
 2237,-0.00000851,0.00001552,0.00003517,0.00001145,0.00003307,0.0000141
 4,0.00001007,-0.00001024,0.00000056,0.00000011,0.00000045,-0.00000014,
 0.00000126,-0.00000039,0.00000390,-0.00000172,0.00000729,-0.00000298,-
 0.00000025,-0.00000711,-0.00000317,0.00000784,-0.00000349,0.00000386,0
 .00000379,0.00003460,-0.00002477,0.00000713,-0.00006616,-0.00014857,-0
 .00002828,0.00003414,0.00002420,0.00000715,0.00005745,-0.00009985,-0.0
 0001003,0.00000670,0.00000704,0.00000491,-0.00001029,0.00005759,0.0000
 1993,-0.00003097,0.00004303,-0.00000954,0.00000194,0.00000032,0.000001
 97,-0.00007270,-0.00035170,-0.00014344,0.00000298,0.00000109,0.0000008
 2,-0.00169948,0.00038185,-0.00074238,-0.00107198,-0.00004563,-0.000174
 59,0.00264152,0.00073034,0.00137199,0.00835873,-0.00377231,0.01310687,
 0.02985396,-0.05873163,0.04483892,0.00284231,-0.00110797,-0.00139693,-
 0.00058142,0.00059928,-0.00032801,0.01147590,-0.00444357,0.01609602,-0
 .01609162,0.00708448,-0.02377260,-0.03568110,0.05958340,0.00000305,0.0
 0000327,-0.00000026,-0.00000212,-0.00001044,-0.00000597,0.00000596,0.0
 0000635,-0.00000754,0.00007860,0.00006179,0.00005696,-0.00012794,-0.00
 001206,-0.00001464,0.00004396,0.00002599,0.00003585,0.00014011,0.00005
 256,0.00003414,-0.00017972,-0.00001288,-0.00000909,0.00003711,0.000004
 76,0.00001003,0.00009002,-0.00002445,-0.00001387,-0.00010685,0.0001346
 4,0.00004155,0.00002412,-0.00002328,-0.00000468,-0.00002710,0.00000009
 ,-0.00000134,0.00000019,-0.00000064,-0.00000077,-0.00000154,0.00000340
 ,0.00000265,0.00000080,-0.00000205,0.00000077,0.00000559,0.00000444,-0
 .00000284,0.00000134,-0.00000321,0.00000033,-0.00000212,0.00000427,0.0
 0000360,-0.00002569,-0.00009543,-0.00008663,-0.00003646,0.00007118,0.0
 0003021,0.00006611,-0.00012580,-0.00003861,-0.00005084,0.00001743,-0.0
 0002515,0.00000147,0.00000275,-0.00000131,0.00001652,-0.00000364,0.000
 00902,0.00003327,-0.00001274,0.00001956,-0.00000018,-0.00000204,0.0000
 0155,-0.00002282,-0.00011102,-0.00007364,0.00000072,-0.00000038,-0.000
 00017,0.00118707,-0.00048257,0.00003073,0.00019988,0.00056427,0.000144
 86,-0.00110577,-0.00114864,-0.00009349,0.00609600,-0.00185703,0.009082
 37,-0.12257790,0.04681321,-0.22732134,0.00204841,-0.00174637,0.0006091
 6,-0.00061116,0.00038926,0.00081499,-0.01115987,0.00315608,-0.01629979
 ,-0.00648595,0.00326591,-0.01179950,0.13244371,-0.04890700,0.24487227\
 \-0.00000075,-0.00000238,-0.00000089,-0.00000274,0.00000307,-0.0000036
 1,0.00000458,0.00000590,-0.00000976,-0.00000576,-0.00002892,0.00001591
 ,0.00000388,0.00001457,0.00000564,-0.00000055,-0.00000817,-0.00000784,
 -0.00000401,0.00000861,-0.00000281,0.00000349,-0.00001239,-0.00000370,
 0.00000782,0.00000722,0.00000594,0.00000021,-0.00000016,-0.00000137,0.
 00000801,-0.00000193,0.00000053,0.00000010,-0.00000491,-0.00000274,-0.
 00000601,0.00000024,0.00000077,-0.00000042,0.00000004,-0.00000004,0.00
 000020,0.00000008,0.00000035,0.00000130,0.00000089,0.00000261,-0.00000
 059,-0.00000236,0.00000259,-0.00000145,0.00000004,0.00000054,0.0000002
 5,-0.00000112,-0.00000046,0.00000226,0.00000575,0.00000505,-0.00000054
 ,-0.00000052,-0.00000050,-0.00000317,0.00000433,0.00000077,-0.00002272
 ,-0.00001184,-0.00003009,0.00000025,0.00000063,0.00000086,0.00000589,0
 .00001505,0.00001335,0.00001520,-0.00000094,0.00001272,-0.00000009,0.0
 0000057,0.00000016,0.00000220,0.00000667,0.00000540,0.00000125,-0.0000
 0049,-0.00000047,-0.00000222,0.00000416,-0.00000647,-0.00001449,0.0000
 0524,-0.00001763,0.00000981,-0.00000404,0.00001253,0.00000008,-0.00000
 789,-0.00000157,-0.00000382,0.00000247,0.00000196,-0.00000021,0.000001
 15,0.00000193,0.00000079,0.00000148,0.00000162,0.00000092,-0.00000039,
 -0.00000083,0.00000119,0.00000005,-0.00000035,-0.00000014,0.00000024,-
 0.00000011\\\@


 You never know when you're making a memory.
                        -- Rickie Lee Jones
 Job cpu time:       0 days  6 hours 51 minutes 51.9 seconds.
 File lengths (MBytes):  RWF=    851 Int=      0 D2E=      0 Chk=     17 Scr=      1
 Normal termination of Gaussian 09 at Tue Feb 19 13:33:03 2019.
WARNING: pbs_rusage is deprecated and values produced may not be accurate


=============================================================================
                                     Resource usage:
                                       CPU time:              26:12:10
   JobId:    5877204.r-man2            Elapsed time:          03:18:01
   Project:             q95            Requested time:        44:00:00
   Service Units:     26.40 
                                       Max physical memory:     1552MB
                                       Max virtual memory:      2731MB
                                       Requested memory:           0MB

                                       Number of cpus:               8

                                       Max jobfs disk use:       0.8GB
                                       Requested jobfs:         20.0GB
=============================================================================

